 DBCSR| CPU Multiplication driver                                           XSMM (U)
 DBCSR| Multrec recursion limit                                              512 (U)
 DBCSR| Multiplication stack size                                           1000 (D)
 DBCSR| Maximum elements for images                                    UNLIMITED (U)
 DBCSR| Multiplicative factor virtual images                                   1 (U)
 DBCSR| Use multiplication densification                                       T (D)
 DBCSR| Multiplication size stacks                                             3 (U)
 DBCSR| Use memory pool for CPU allocation                                     F (U)
 DBCSR| Number of 3D layers                                               SINGLE (U)
 DBCSR| Use MPI memory allocation                                              F (U)
 DBCSR| Use RMA algorithm                                                      F (U)
 DBCSR| Use Communication thread                                               T (U)
 DBCSR| Communication thread load                                             87 (D)
 DBCSR| MPI: My process id                                                     0
 DBCSR| MPI: Number of processes                                               1
 DBCSR| OMP: Current number of threads                                         1
 DBCSR| OMP: Max number of threads                                             1
 DBCSR| Split modifier for TAS multiplication algorithm                  1.0E+00 (U)


  **** **** ******  **  PROGRAM STARTED AT               2024-05-14 10:44:21.463
 ***** ** ***  *** **   PROGRAM STARTED ON                           surface-mia
 **    ****   ******    PROGRAM STARTED BY                                   mia
 ***** **    ** ** **   PROGRAM PROCESS ID                                 17248
  **** **  *******  **  PROGRAM STARTED IN /home/mia/Dokumente/GW100/Paper/Low_S
                                           caling/3_BeO_PBE0

 CP2K| version string:                 CP2K version 2024.1 (Development Version)
 CP2K| source code revision number:                                  git:0de0cc2
 CP2K| cp2kflags: omp libint fftw3 libxc parallel mpi_f08 scalapack xsmm        
 CP2K| is freely available from                            https://www.cp2k.org/
 CP2K| Program compiled at                         Do 28. Mär 14:08:46 CET 2024
 CP2K| Program compiled on                                           surface-mia
 CP2K| Program compiled for                                                local
 CP2K| Data directory path                    /home/mia/Dokumente/Code/cp2k/data
 CP2K| Input file name                                                    GW.inp

 GLOBAL| Force Environment number                                              1
 GLOBAL| Basis set file name                              BASIS_def2_QZVP_RI_ALL
 GLOBAL| Potential file name                                           POTENTIAL
 GLOBAL| MM Potential file name                                     MM_POTENTIAL
 GLOBAL| Coordinate file name                                      __STD_INPUT__
 GLOBAL| Method name                                                        CP2K
 GLOBAL| Project name                                                   ALL_ELEC
 GLOBAL| Run type                                                         ENERGY
 GLOBAL| FFT library                                                       FFTW3
 GLOBAL| Diagonalization library                                       ScaLAPACK
 GLOBAL| DGEMM library                                                      BLAS
 GLOBAL| Orthonormality check for eigenvectors                          DISABLED
 GLOBAL| Matrix multiplication library                                 ScaLAPACK
 GLOBAL| All-to-all communication in single precision                          F
 GLOBAL| FFTs using library dependent lengths                                  F
 GLOBAL| Grid backend                                                       AUTO
 GLOBAL| Global print level                                               MEDIUM
 GLOBAL| MPI I/O enabled                                                       T
 GLOBAL| Total number of message passing processes                             1
 GLOBAL| Number of threads for this process                                    1
 GLOBAL| This output is from process                                           0
 GLOBAL| Stack size for threads created by OpenMP (OMP_STACKSIZE)        default
 GLOBAL| CPU model name           11th Gen Intel(R) Core(TM) i5-1135G7 @ 2.40GHz
 GLOBAL| CPUID                                                              1003
 GLOBAL| Compiled for CPUID                                                    0

 *** HINT in environment.F:920 :: The compiler target flags (generic) used ***
 *** to build this binary cannot exploit all extensions of this CPU model  ***
 *** (x86_avx512). Consider compiler target flags as part of FCFLAGS and   ***
 *** CFLAGS (ARCH file).                                                   ***


 MEMORY| system memory details [Kb]
 MEMORY|                        rank 0           min           max       average
 MEMORY| MemTotal              7965312       7965312       7965312       7965312
 MEMORY| MemFree               4894708       4894708       4894708       4894708
 MEMORY| Buffers                 53156         53156         53156         53156
 MEMORY| Cached                1203800       1203800       1203800       1203800
 MEMORY| Slab                   265916        265916        265916        265916
 MEMORY| SReclaimable           122352        122352        122352        122352
 MEMORY| MemLikelyFree         6274016       6274016       6274016       6274016


 *** Fundamental physical constants (SI units) ***

 *** Literature: B. J. Mohr and B. N. Taylor,
 ***             CODATA recommended values of the fundamental physical
 ***             constants: 2006, Web Version 5.1
 ***             http://physics.nist.gov/constants

 Speed of light in vacuum [m/s]                             2.99792458000000E+08
 Magnetic constant or permeability of vacuum [N/A**2]       1.25663706143592E-06
 Electric constant or permittivity of vacuum [F/m]          8.85418781762039E-12
 Planck constant (h) [J*s]                                  6.62606896000000E-34
 Planck constant (h-bar) [J*s]                              1.05457162825177E-34
 Elementary charge [C]                                      1.60217648700000E-19
 Electron mass [kg]                                         9.10938215000000E-31
 Electron g factor [ ]                                     -2.00231930436220E+00
 Proton mass [kg]                                           1.67262163700000E-27
 Fine-structure constant                                    7.29735253760000E-03
 Rydberg constant [1/m]                                     1.09737315685270E+07
 Avogadro constant [1/mol]                                  6.02214179000000E+23
 Boltzmann constant [J/K]                                   1.38065040000000E-23
 Atomic mass unit [kg]                                      1.66053878200000E-27
 Bohr radius [m]                                            5.29177208590000E-11

 *** Conversion factors ***

 [u] -> [a.u.]                                              1.82288848426455E+03
 [Angstrom] -> [Bohr] = [a.u.]                              1.88972613288564E+00
 [a.u.] = [Bohr] -> [Angstrom]                              5.29177208590000E-01
 [a.u.] -> [s]                                              2.41888432650478E-17
 [a.u.] -> [fs]                                             2.41888432650478E-02
 [a.u.] -> [J]                                              4.35974393937059E-18
 [a.u.] -> [N]                                              8.23872205491840E-08
 [a.u.] -> [K]                                              3.15774647902944E+05
 [a.u.] -> [kJ/mol]                                         2.62549961709828E+03
 [a.u.] -> [kcal/mol]                                       6.27509468713739E+02
 [a.u.] -> [Pa]                                             2.94210107994716E+13
 [a.u.] -> [bar]                                            2.94210107994716E+08
 [a.u.] -> [atm]                                            2.90362800883016E+08
 [a.u.] -> [eV]                                             2.72113838565563E+01
 [a.u.] -> [Hz]                                             6.57968392072181E+15
 [a.u.] -> [1/cm] (wave numbers)                            2.19474631370540E+05
 [a.u./Bohr**2] -> [1/cm]                                   5.14048714338585E+03
 

 CELL_TOP| Volume [angstrom^3]:                                      1000.000000
 CELL_TOP| Vector a [angstrom    10.000     0.000     0.000   |a| =    10.000000
 CELL_TOP| Vector b [angstrom     0.000    10.000     0.000   |b| =    10.000000
 CELL_TOP| Vector c [angstrom     0.000     0.000    10.000   |c| =    10.000000
 CELL_TOP| Angle (b,c), alpha [degree]:                                90.000000
 CELL_TOP| Angle (a,c), beta  [degree]:                                90.000000
 CELL_TOP| Angle (a,b), gamma [degree]:                                90.000000
 CELL_TOP| Numerically orthorhombic:                                         YES
 CELL_TOP| Periodicity                                                      NONE

 GENERATE|  Preliminary Number of Bonds generated:                             0
 GENERATE|  Achieved consistency in connectivity generation.

 CELL| Volume [angstrom^3]:                                          1000.000000
 CELL| Vector a [angstrom]:      10.000     0.000     0.000   |a| =    10.000000
 CELL| Vector b [angstrom]:       0.000    10.000     0.000   |b| =    10.000000
 CELL| Vector c [angstrom]:       0.000     0.000    10.000   |c| =    10.000000
 CELL| Angle (b,c), alpha [degree]:                                    90.000000
 CELL| Angle (a,c), beta  [degree]:                                    90.000000
 CELL| Angle (a,b), gamma [degree]:                                    90.000000
 CELL| Numerically orthorhombic:                                             YES
 CELL| Periodicity                                                          NONE

 CELL_REF| Volume [angstrom^3]:                                      1000.000000
 CELL_REF| Vector a [angstrom    10.000     0.000     0.000   |a| =    10.000000
 CELL_REF| Vector b [angstrom     0.000    10.000     0.000   |b| =    10.000000
 CELL_REF| Vector c [angstrom     0.000     0.000    10.000   |c| =    10.000000
 CELL_REF| Angle (b,c), alpha [degree]:                                90.000000
 CELL_REF| Angle (a,c), beta  [degree]:                                90.000000
 CELL_REF| Angle (a,b), gamma [degree]:                                90.000000
 CELL_REF| Numerically orthorhombic:                                         YES
 CELL_REF| Periodicity                                                      NONE

 *******************************************************************************
 *******************************************************************************
 **                                                                           **
 **     #####                         ##              ##                      **
 **    ##   ##            ##          ##              ##                      **
 **   ##     ##                       ##            ######                    **
 **   ##     ##  ##   ##  ##   #####  ##  ##   ####   ##    #####    #####    **
 **   ##     ##  ##   ##  ##  ##      ## ##   ##      ##   ##   ##  ##   ##   **
 **   ##  ## ##  ##   ##  ##  ##      ####     ###    ##   ######   ######    **
 **    ##  ###   ##   ##  ##  ##      ## ##      ##   ##   ##       ##        **
 **     #######   #####   ##   #####  ##  ##  ####    ##    #####   ##        **
 **           ##                                                    ##        **
 **                                                                           **
 **                                                ... make the atoms dance   **
 **                                                                           **
 **            Copyright (C) by CP2K developers group (2000-2024)             **
 **                      J. Chem. Phys. 152, 194103 (2020)                    **
 **                                                                           **
 *******************************************************************************

 *** WARNING in qs_environment.F:937 :: Low-scaling RPA requires        ***
 *** SORT_BASIS EXP keyword (in DFT input section) for good performance ***


 DFT| Spin restricted Kohn-Sham (RKS) calculation                            RKS
 DFT| Multiplicity                                                             1
 DFT| Number of spin states                                                    1
 DFT| Charge                                                                   0
 DFT| Self-interaction correction (SIC)                                       NO
 DFT| Cutoffs: density                                              1.000000E-10
 DFT|          gradient                                             1.000000E-10
 DFT|          tau                                                  1.000000E-10
 DFT|          cutoff_smoothing_range                               0.000000E+00
 DFT| XC density smoothing                                                  NONE
 DFT| XC derivatives                                                          PW

 FUNCTIONAL| PBE:
 FUNCTIONAL| J.P.Perdew, K.Burke, M.Ernzerhof, Phys. Rev. Letter, vol. 77, n 18,
 FUNCTIONAL|  pp. 3865-3868, (1996)sx=0.750sc=1.000{spin unpolarized}           


 QS| Method:                                                                GAPW
 QS| Density plane wave grid type                        NON-SPHERICAL FULLSPACE
 QS| Number of grid levels:                                                    4
 QS| Density cutoff [a.u.]:                                                200.0
 QS| Multi grid cutoff [a.u.]: 1) grid level                               200.0
 QS|                           2) grid level                                66.7
 QS|                           3) grid level                                22.2
 QS|                           4) grid level                                 7.4
 QS| Grid level progression factor:                                          3.0
 QS| Relative density cutoff [a.u.]:                                        25.0
 QS| Interaction thresholds: eps_pgf_orb:                                1.0E-05
 QS|                         eps_filter_matrix:                          0.0E+00
 QS|                         eps_core_charge:                            1.0E-12
 QS|                         eps_rho_gspace:                             1.0E-10
 QS|                         eps_rho_rspace:                             1.0E-10
 QS|                         eps_gvg_rspace:                             1.0E-05
 QS|                         eps_ppl:                                    1.0E-02
 QS|                         eps_ppnl:                                   1.0E-07
 QS| GAPW|      One center basis from orbital basis primitives
 QS| GAPW|                   eps_fit:                                    1.0E-04
 QS| GAPW|                   eps_iso:                                    1.0E-12
 QS| GAPW|                   eps_svd:                                    1.0E-08
 QS| GAPW|                   eps_cpc:                                    1.0E-10
 QS| GAPW|   atom-r-grid: quadrature:                                     GC_LOG
 QS| GAPW|      atom-s-grid:  max l :                                          8
 QS| GAPW|      max_l_rho0 :                                                   2


 ATOMIC KIND INFORMATION

  1. Atomic kind: Be                                    Number of atoms:       1

     Orbital Basis Set                                                 def2-QZVP

       Number of orbital shell sets:                                          14
       Number of orbital shells:                                              14
       Number of primitive Cartesian functions:                               25
       Number of Cartesian basis functions:                                   41
       Number of spherical basis functions:                                   36
       Norm type:                                                              2

       Normalised Cartesian orbitals:

                        Set   Shell   Orbital            Exponent    Coefficient

                          1       1    1s            29646.704407       0.114175
                                                      4428.761435       0.214060
                                                      1005.470133       0.370329
                                                       284.153396       0.602123
                                                        92.504356       0.918340
                                                        33.311016       1.282683
                                                        12.911553       1.543486
                                                         5.266550       1.466966

                          2       1    1s               22.995386       0.708607
                                                         6.623635       2.725094

                          3       1    1s                2.228960       1.300130

                          4       1    1s                0.953024       0.687445

                          5       1    1s                0.246516       0.249341

                          6       1    1s                0.101539       0.128199

                          7       1    1s                0.041551       0.065592

                          8       1    1px              14.099789       0.394904
                                                         3.180319       0.385002
                                                         0.904892       0.324387
                                                         0.304116       0.249804
                          8       1    1py              14.099789       0.394904
                                                         3.180319       0.385002
                                                         0.904892       0.324387
                                                         0.304116       0.249804
                          8       1    1pz              14.099789       0.394904
                                                         3.180319       0.385002
                                                         0.904892       0.324387
                                                         0.304116       0.249804

                          9       1    1px               0.113026       0.093414
                          9       1    1py               0.113026       0.093414
                          9       1    1pz               0.113026       0.093414

                         10       1    1px               0.042832       0.027775
                         10       1    1py               0.042832       0.027775
                         10       1    1pz               0.042832       0.027775

                         11       1    1px               6.400000      14.509921
                         11       1    1py               6.400000      14.509921
                         11       1    1pz               6.400000      14.509921

                         12       1    1dx2              0.360000       0.275384
                         12       1    1dxy              0.360000       0.476979
                         12       1    1dxz              0.360000       0.476979
                         12       1    1dy2              0.360000       0.275384
                         12       1    1dyz              0.360000       0.476979
                         12       1    1dz2              0.360000       0.275384

                         13       1    1dx2              0.090000       0.024341
                         13       1    1dxy              0.090000       0.042159
                         13       1    1dxz              0.090000       0.042159
                         13       1    1dy2              0.090000       0.024341
                         13       1    1dyz              0.090000       0.042159
                         13       1    1dz2              0.090000       0.024341

                         14       1    1fx3              0.290000       0.090855
                         14       1    1fx2y             0.290000       0.203158
                         14       1    1fx2z             0.290000       0.203158
                         14       1    1fxy2             0.290000       0.203158
                         14       1    1fxyz             0.290000       0.351881
                         14       1    1fxz2             0.290000       0.203158
                         14       1    1fy3              0.290000       0.090855
                         14       1    1fy2z             0.290000       0.203158
                         14       1    1fyz2             0.290000       0.203158
                         14       1    1fz3              0.290000       0.090855

     RI Auxiliary Basis Set                                                RI-5Z

       Number of orbital shell sets:                                          39
       Number of orbital shells:                                              39
       Number of primitive Cartesian functions:                               39
       Number of Cartesian basis functions:                                  287
       Number of spherical basis functions:                                  193
       Norm type:                                                              2

       Normalised Cartesian orbitals:

                        Set   Shell   Orbital            Exponent    Coefficient

                          1       1    1s              155.476000      31.380338

                          2       1    1s               33.616500       9.950032

                          3       1    1s                9.865750       3.967415

                          4       1    1s                5.187230       2.449693

                          5       1    1s                2.048250       1.220246

                          6       1    1s                0.941824       0.681377

                          7       1    1s                0.494373       0.420195

                          8       1    1s                0.304521       0.292162

                          9       1    1s                0.168188       0.187179

                         10       1    1s                0.090836       0.117925

                         11       1    1px              29.226300      96.862882
                         11       1    1py              29.226300      96.862882
                         11       1    1pz              29.226300      96.862882

                         12       1    1px               8.190870      19.751616
                         12       1    1py               8.190870      19.751616
                         12       1    1pz               8.190870      19.751616

                         13       1    1px               3.244700       6.207379
                         13       1    1py               3.244700       6.207379
                         13       1    1pz               3.244700       6.207379

                         14       1    1px               1.274640       1.930521
                         14       1    1py               1.274640       1.930521
                         14       1    1pz               1.274640       1.930521

                         15       1    1px               0.594885       0.744700
                         15       1    1py               0.594885       0.744700
                         15       1    1pz               0.594885       0.744700

                         16       1    1px               0.289372       0.302525
                         16       1    1py               0.289372       0.302525
                         16       1    1pz               0.289372       0.302525

                         17       1    1px               0.148487       0.131386
                         17       1    1py               0.148487       0.131386
                         17       1    1pz               0.148487       0.131386

                         18       1    1px               0.078547       0.059272
                         18       1    1py               0.078547       0.059272
                         18       1    1pz               0.078547       0.059272

                         19       1    1dx2              9.776100      88.960931
                         19       1    1dxy              9.776100     154.084852
                         19       1    1dxz              9.776100     154.084852
                         19       1    1dy2              9.776100      88.960931
                         19       1    1dyz              9.776100     154.084852
                         19       1    1dz2              9.776100      88.960931

                         20       1    1dx2              3.818020      17.164308
                         20       1    1dxy              3.818020      29.729454
                         20       1    1dxz              3.818020      29.729454
                         20       1    1dy2              3.818020      17.164308
                         20       1    1dyz              3.818020      29.729454
                         20       1    1dz2              3.818020      17.164308

                         21       1    1dx2              1.733830       4.311922
                         21       1    1dxy              1.733830       7.468467
                         21       1    1dxz              1.733830       7.468467
                         21       1    1dy2              1.733830       4.311922
                         21       1    1dyz              1.733830       7.468467
                         21       1    1dz2              1.733830       4.311922

                         22       1    1dx2              0.897386       1.361831
                         22       1    1dxy              0.897386       2.358760
                         22       1    1dxz              0.897386       2.358760
                         22       1    1dy2              0.897386       1.361831
                         22       1    1dyz              0.897386       2.358760
                         22       1    1dz2              0.897386       1.361831

                         23       1    1dx2              0.453927       0.413176
                         23       1    1dxy              0.453927       0.715642
                         23       1    1dxz              0.453927       0.715642
                         23       1    1dy2              0.453927       0.413176
                         23       1    1dyz              0.453927       0.715642
                         23       1    1dz2              0.453927       0.413176

                         24       1    1dx2              0.238389       0.133863
                         24       1    1dxy              0.238389       0.231857
                         24       1    1dxz              0.238389       0.231857
                         24       1    1dy2              0.238389       0.133863
                         24       1    1dyz              0.238389       0.231857
                         24       1    1dz2              0.238389       0.133863

                         25       1    1dx2              0.136955       0.050748
                         25       1    1dxy              0.136955       0.087898
                         25       1    1dxz              0.136955       0.087898
                         25       1    1dy2              0.136955       0.050748
                         25       1    1dyz              0.136955       0.087898
                         25       1    1dz2              0.136955       0.050748

                         26       1    1fx3              4.091040      35.041310
                         26       1    1fx2y             4.091040      78.354751
                         26       1    1fx2z             4.091040      78.354751
                         26       1    1fxy2             4.091040      78.354751
                         26       1    1fxyz             4.091040     135.714410
                         26       1    1fxz2             4.091040      78.354751
                         26       1    1fy3              4.091040      35.041310
                         26       1    1fy2z             4.091040      78.354751
                         26       1    1fyz2             4.091040      78.354751
                         26       1    1fz3              4.091040      35.041310

                         27       1    1fx3              1.761390       5.261740
                         27       1    1fx2y             1.761390      11.765608
                         27       1    1fx2z             1.761390      11.765608
                         27       1    1fxy2             1.761390      11.765608
                         27       1    1fxyz             1.761390      20.378631
                         27       1    1fxz2             1.761390      11.765608
                         27       1    1fy3              1.761390       5.261740
                         27       1    1fy2z             1.761390      11.765608
                         27       1    1fyz2             1.761390      11.765608
                         27       1    1fz3              1.761390       5.261740

                         28       1    1fx3              0.874992       1.090093
                         28       1    1fx2y             0.874992       2.437523
                         28       1    1fx2z             0.874992       2.437523
                         28       1    1fxy2             0.874992       2.437523
                         28       1    1fxyz             0.874992       4.221913
                         28       1    1fxz2             0.874992       2.437523
                         28       1    1fy3              0.874992       1.090093
                         28       1    1fy2z             0.874992       2.437523
                         28       1    1fyz2             0.874992       2.437523
                         28       1    1fz3              0.874992       1.090093

                         29       1    1fx3              0.497082       0.305434
                         29       1    1fx2y             0.497082       0.682971
                         29       1    1fx2z             0.497082       0.682971
                         29       1    1fxy2             0.497082       0.682971
                         29       1    1fxyz             0.497082       1.182941
                         29       1    1fxz2             0.497082       0.682971
                         29       1    1fy3              0.497082       0.305434
                         29       1    1fy2z             0.497082       0.682971
                         29       1    1fyz2             0.497082       0.682971
                         29       1    1fz3              0.497082       0.305434

                         30       1    1fx3              0.330842       0.122208
                         30       1    1fx2y             0.330842       0.273266
                         30       1    1fx2z             0.330842       0.273266
                         30       1    1fxy2             0.330842       0.273266
                         30       1    1fxyz             0.330842       0.473311
                         30       1    1fxz2             0.330842       0.273266
                         30       1    1fy3              0.330842       0.122208
                         30       1    1fy2z             0.330842       0.273266
                         30       1    1fyz2             0.330842       0.273266
                         30       1    1fz3              0.330842       0.122208

                         31       1    1fx3              0.205294       0.041764
                         31       1    1fx2y             0.205294       0.093387
                         31       1    1fx2z             0.205294       0.093387
                         31       1    1fxy2             0.205294       0.093387
                         31       1    1fxyz             0.205294       0.161751
                         31       1    1fxz2             0.205294       0.093387
                         31       1    1fy3              0.205294       0.041764
                         31       1    1fy2z             0.205294       0.093387
                         31       1    1fyz2             0.205294       0.093387
                         31       1    1fz3              0.205294       0.041764

                         32       1    1gx4              2.356140      11.748663
                         32       1    1gx3y             2.356140      31.084039
                         32       1    1gx3z             2.356140      31.084039
                         32       1    1gx2y2            2.356140      40.129322
                         32       1    1gx2yz            2.356140      69.506025
                         32       1    1gx2z2            2.356140      40.129322
                         32       1    1gxy3             2.356140      31.084039
                         32       1    1gxy2z            2.356140      69.506025
                         32       1    1gxyz2            2.356140      69.506025
                         32       1    1gxz3             2.356140      31.084039
                         32       1    1gy4              2.356140      11.748663
                         32       1    1gy3z             2.356140      31.084039
                         32       1    1gy2z2            2.356140      40.129322
                         32       1    1gyz3             2.356140      31.084039
                         32       1    1gz4              2.356140      11.748663

                         33       1    1gx4              0.727039       0.463147
                         33       1    1gx3y             0.727039       1.225373
                         33       1    1gx3z             0.727039       1.225373
                         33       1    1gx2y2            0.727039       1.581949
                         33       1    1gx2yz            0.727039       2.740016
                         33       1    1gx2z2            0.727039       1.581949
                         33       1    1gxy3             0.727039       1.225373
                         33       1    1gxy2z            0.727039       2.740016
                         33       1    1gxyz2            0.727039       2.740016
                         33       1    1gxz3             0.727039       1.225373
                         33       1    1gy4              0.727039       0.463147
                         33       1    1gy3z             0.727039       1.225373
                         33       1    1gy2z2            0.727039       1.581949
                         33       1    1gyz3             0.727039       1.225373
                         33       1    1gz4              0.727039       0.463147

                         34       1    1gx4              0.515330       0.179751
                         34       1    1gx3y             0.515330       0.475575
                         34       1    1gx3z             0.515330       0.475575
                         34       1    1gx2y2            0.515330       0.613965
                         34       1    1gx2yz            0.515330       1.063419
                         34       1    1gx2z2            0.515330       0.613965
                         34       1    1gxy3             0.515330       0.475575
                         34       1    1gxy2z            0.515330       1.063419
                         34       1    1gxyz2            0.515330       1.063419
                         34       1    1gxz3             0.515330       0.475575
                         34       1    1gy4              0.515330       0.179751
                         34       1    1gy3z             0.515330       0.475575
                         34       1    1gy2z2            0.515330       0.613965
                         34       1    1gyz3             0.515330       0.475575
                         34       1    1gz4              0.515330       0.179751

                         35       1    1gx4              0.380351       0.077973
                         35       1    1gx3y             0.380351       0.206297
                         35       1    1gx3z             0.380351       0.206297
                         35       1    1gx2y2            0.380351       0.266328
                         35       1    1gx2yz            0.380351       0.461293
                         35       1    1gx2z2            0.380351       0.266328
                         35       1    1gxy3             0.380351       0.206297
                         35       1    1gxy2z            0.380351       0.461293
                         35       1    1gxyz2            0.380351       0.461293
                         35       1    1gxz3             0.380351       0.206297
                         35       1    1gy4              0.380351       0.077973
                         35       1    1gy3z             0.380351       0.206297
                         35       1    1gy2z2            0.380351       0.266328
                         35       1    1gyz3             0.380351       0.206297
                         35       1    1gz4              0.380351       0.077973

                         36       1    1hx5              1.504620       2.798861
                         36       1    1hx4y             1.504620       8.396584
                         36       1    1hx4z             1.504620       8.396584
                         36       1    1hx3y2            1.504620      12.825993
                         36       1    1hx3yz            1.504620      22.215272
                         36       1    1hx3z2            1.504620      12.825993
                         36       1    1hx2y3            1.504620      12.825993
                         36       1    1hx2y2z           1.504620      28.679793
                         36       1    1hx2yz2           1.504620      28.679793
                         36       1    1hx2z3            1.504620      12.825993
                         36       1    1hxy4             1.504620       8.396584
                         36       1    1hxy3z            1.504620      22.215272
                         36       1    1hxy2z2           1.504620      28.679793
                         36       1    1hxyz3            1.504620      22.215272
                         36       1    1hxz4             1.504620       8.396584
                         36       1    1hy5              1.504620       2.798861
                         36       1    1hy4z             1.504620       8.396584
                         36       1    1hy3z2            1.504620      12.825993
                         36       1    1hy2z3            1.504620      12.825993
                         36       1    1hyz4             1.504620       8.396584
                         36       1    1hz5              1.504620       2.798861

                         37       1    1hx5              0.672211       0.204050
                         37       1    1hx4y             0.672211       0.612151
                         37       1    1hx4z             0.672211       0.612151
                         37       1    1hx3y2            0.672211       0.935076
                         37       1    1hx3yz            0.672211       1.619600
                         37       1    1hx3z2            0.672211       0.935076
                         37       1    1hx2y3            0.672211       0.935076
                         37       1    1hx2y2z           0.672211       2.090894
                         37       1    1hx2yz2           0.672211       2.090894
                         37       1    1hx2z3            0.672211       0.935076
                         37       1    1hxy4             0.672211       0.612151
                         37       1    1hxy3z            0.672211       1.619600
                         37       1    1hxy2z2           0.672211       2.090894
                         37       1    1hxyz3            0.672211       1.619600
                         37       1    1hxz4             0.672211       0.612151
                         37       1    1hy5              0.672211       0.204050
                         37       1    1hy4z             0.672211       0.612151
                         37       1    1hy3z2            0.672211       0.935076
                         37       1    1hy2z3            0.672211       0.935076
                         37       1    1hyz4             0.672211       0.612151
                         37       1    1hz5              0.672211       0.204050

                         38       1    1hx5              0.511708       0.084075
                         38       1    1hx4y             0.511708       0.252225
                         38       1    1hx4z             0.511708       0.252225
                         38       1    1hx3y2            0.511708       0.385280
                         38       1    1hx3yz            0.511708       0.667324
                         38       1    1hx3z2            0.511708       0.385280
                         38       1    1hx2y3            0.511708       0.385280
                         38       1    1hx2y2z           0.511708       0.861511
                         38       1    1hx2yz2           0.511708       0.861511
                         38       1    1hx2z3            0.511708       0.385280
                         38       1    1hxy4             0.511708       0.252225
                         38       1    1hxy3z            0.511708       0.667324
                         38       1    1hxy2z2           0.511708       0.861511
                         38       1    1hxyz3            0.511708       0.667324
                         38       1    1hxz4             0.511708       0.252225
                         38       1    1hy5              0.511708       0.084075
                         38       1    1hy4z             0.511708       0.252225
                         38       1    1hy3z2            0.511708       0.385280
                         38       1    1hy2z3            0.511708       0.385280
                         38       1    1hyz4             0.511708       0.252225
                         38       1    1hz5              0.511708       0.084075

                         39       1    1ix6              0.672211       0.100884
                         39       1    1ix5y             0.672211       0.334596
                         39       1    1ix5z             0.672211       0.334596
                         39       1    1ix4y2            0.672211       0.579537
                         39       1    1ix4yz            0.672211       1.003787
                         39       1    1ix4z2            0.672211       0.579537
                         39       1    1ix3y3            0.672211       0.685717
                         39       1    1ix3y2z           0.672211       1.533310
                         39       1    1ix3yz2           0.672211       1.533310
                         39       1    1ix3z3            0.672211       0.685717
                         39       1    1ix2y4            0.672211       0.579537
                         39       1    1ix2y3z           0.672211       1.533310
                         39       1    1ix2y2z2          0.672211       1.979494
                         39       1    1ix2yz3           0.672211       1.533310
                         39       1    1ix2z4            0.672211       0.579537
                         39       1    1ixy5             0.672211       0.334596
                         39       1    1ixy4z            0.672211       1.003787
                         39       1    1ixy3z2           0.672211       1.533310
                         39       1    1ixy2z3           0.672211       1.533310
                         39       1    1ixyz4            0.672211       1.003787
                         39       1    1ixz5             0.672211       0.334596
                         39       1    1iy6              0.672211       0.100884
                         39       1    1iy5z             0.672211       0.334596
                         39       1    1iy4z2            0.672211       0.579537
                         39       1    1iy3z3            0.672211       0.685717
                         39       1    1iy2z4            0.672211       0.579537
                         39       1    1iyz5             0.672211       0.334596
                         39       1    1iz6              0.672211       0.100884

       Atomic covalent radius [Angstrom]:                                  0.900

       Atomic van der Waals radius [Angstrom]:                             1.530

     The atoms of this atomic kind are PAW atoms (GAPW):
       Hard Gaussian function radius:                                      1.512
       Rho0 radius:                                                        1.512
       Maximum GTO radius used for PAW projector construction:            24.566

     GAPW Soft Basis Set                                          def2-QZVP_soft

       Number of orbital shell sets:                                          14
       Number of orbital shells:                                              14
       Number of primitive Cartesian functions:                               13
       Number of Cartesian basis functions:                                   41
       Number of spherical basis functions:                                   36
       Norm type:                                                              2

       Normalised Cartesian orbitals:

                        Set   Shell   Orbital            Exponent    Coefficient

                          1       1    1s         

                          2       1    1s         

                          3       1    1s                2.228960       1.300130

                          4       1    1s                0.953024       0.687445

                          5       1    1s                0.246516       0.249341

                          6       1    1s                0.101539       0.128199

                          7       1    1s                0.041551       0.065592

                          8       1    1px               3.180319       0.385002
                                                         0.904892       0.324387
                                                         0.304116       0.249804
                          8       1    1py               3.180319       0.385002
                                                         0.904892       0.324387
                                                         0.304116       0.249804
                          8       1    1pz               3.180319       0.385002
                                                         0.904892       0.324387
                                                         0.304116       0.249804

                          9       1    1px               0.113026       0.093414
                          9       1    1py               0.113026       0.093414
                          9       1    1pz               0.113026       0.093414

                         10       1    1px               0.042832       0.027775
                         10       1    1py               0.042832       0.027775
                         10       1    1pz               0.042832       0.027775

                         11       1    1px        
                         11       1    1py        
                         11       1    1pz        

                         12       1    1dx2              0.360000       0.275384
                         12       1    1dxy              0.360000       0.476979
                         12       1    1dxz              0.360000       0.476979
                         12       1    1dy2              0.360000       0.275384
                         12       1    1dyz              0.360000       0.476979
                         12       1    1dz2              0.360000       0.275384

                         13       1    1dx2              0.090000       0.024341
                         13       1    1dxy              0.090000       0.042159
                         13       1    1dxz              0.090000       0.042159
                         13       1    1dy2              0.090000       0.024341
                         13       1    1dyz              0.090000       0.042159
                         13       1    1dz2              0.090000       0.024341

                         14       1    1fx3              0.290000       0.090855
                         14       1    1fx2y             0.290000       0.203158
                         14       1    1fx2z             0.290000       0.203158
                         14       1    1fxy2             0.290000       0.203158
                         14       1    1fxyz             0.290000       0.351881
                         14       1    1fxz2             0.290000       0.203158
                         14       1    1fy3              0.290000       0.090855
                         14       1    1fy2z             0.290000       0.203158
                         14       1    1fyz2             0.290000       0.203158
                         14       1    1fz3              0.290000       0.090855

     AE Potential information for                                            ALL

       Description:                                       All-electron potential
                                          Krack, Parrinello, PCCP 2, 2105 (2000)

       Gaussian exponent of the core charge distribution:               4.733728
       Electronic configuration (s p d ...):                           4   0   0

  2. Atomic kind: O                                     Number of atoms:       1

     Orbital Basis Set                                                 def2-QZVP

       Number of orbital shell sets:                                          17
       Number of orbital shells:                                              17
       Number of primitive Cartesian functions:                               29
       Number of Cartesian basis functions:                                   72
       Number of spherical basis functions:                                   57
       Norm type:                                                              2

       Normalised Cartesian orbitals:

                        Set   Shell   Orbital            Exponent    Coefficient

                          1       1    1s           116506.469080       0.323542
                                                     17504.349724       0.604284
                                                      3993.451323       1.042947
                                                      1133.006319       1.694135
                                                       369.995696       2.585616
                                                       133.620743       3.631450
                                                        52.035644       4.414414
                                                        21.461939       4.188022

                          2       1    1s               89.835051       1.972527
                                                        26.428011       7.687249

                          3       1    1s                9.282282       3.790104

                          4       1    1s                4.094773       2.051552

                          5       1    1s                1.325535       0.880448

                          6       1    1s                0.518772       0.435655

                          7       1    1s                0.197727       0.211329

                          8       1    1px             191.152558       2.569255
                                                        45.233357       3.383308
                                                        14.353466       3.764009
                                                         5.242237       3.495516
                                                         2.079242       2.436773
                          8       1    1py             191.152558       2.569255
                                                        45.233357       3.383308
                                                        14.353466       3.764009
                                                         5.242237       3.495516
                                                         2.079242       2.436773
                          8       1    1pz             191.152558       2.569255
                                                        45.233357       3.383308
                                                        14.353466       3.764009
                                                         5.242237       3.495516
                                                         2.079242       2.436773

                          9       1    1px               0.842824       1.151095
                          9       1    1py               0.842824       1.151095
                          9       1    1pz               0.842824       1.151095

                         10       1    1px               0.336177       0.364880
                         10       1    1py               0.336177       0.364880
                         10       1    1pz               0.336177       0.364880

                         11       1    1px               0.128640       0.109815
                         11       1    1py               0.128640       0.109815
                         11       1    1pz               0.128640       0.109815

                         12       1    1dx2              3.775000      16.827288
                         12       1    1dxy              3.775000      29.145718
                         12       1    1dxz              3.775000      29.145718
                         12       1    1dy2              3.775000      16.827288
                         12       1    1dyz              3.775000      29.145718
                         12       1    1dz2              3.775000      16.827288

                         13       1    1dx2              1.300000       2.605016
                         13       1    1dxy              1.300000       4.512019
                         13       1    1dxz              1.300000       4.512019
                         13       1    1dy2              1.300000       2.605016
                         13       1    1dyz              1.300000       4.512019
                         13       1    1dz2              1.300000       2.605016

                         14       1    1dx2              0.444000       0.397493
                         14       1    1dxy              0.444000       0.688478
                         14       1    1dxz              0.444000       0.688478
                         14       1    1dy2              0.444000       0.397493
                         14       1    1dyz              0.444000       0.688478
                         14       1    1dz2              0.444000       0.397493

                         15       1    1fx3              2.666000      13.370258
                         15       1    1fx2y             2.666000      29.896805
                         15       1    1fx2z             2.666000      29.896805
                         15       1    1fxy2             2.666000      29.896805
                         15       1    1fxyz             2.666000      51.782785
                         15       1    1fxz2             2.666000      29.896805
                         15       1    1fy3              2.666000      13.370258
                         15       1    1fy2z             2.666000      29.896805
                         15       1    1fyz2             2.666000      29.896805
                         15       1    1fz3              2.666000      13.370258

                         16       1    1fx3              0.859000       1.045777
                         16       1    1fx2y             0.859000       2.338428
                         16       1    1fx2z             0.859000       2.338428
                         16       1    1fxy2             0.859000       2.338428
                         16       1    1fxyz             0.859000       4.050277
                         16       1    1fxz2             0.859000       2.338428
                         16       1    1fy3              0.859000       1.045777
                         16       1    1fy2z             0.859000       2.338428
                         16       1    1fyz2             0.859000       2.338428
                         16       1    1fz3              0.859000       1.045777

                         17       1    1gx4              1.846000       6.005824
                         17       1    1gx3y             1.846000      15.889916
                         17       1    1gx3z             1.846000      15.889916
                         17       1    1gx2y2            1.846000      20.513794
                         17       1    1gx2yz            1.846000      35.530933
                         17       1    1gx2z2            1.846000      20.513794
                         17       1    1gxy3             1.846000      15.889916
                         17       1    1gxy2z            1.846000      35.530933
                         17       1    1gxyz2            1.846000      35.530933
                         17       1    1gxz3             1.846000      15.889916
                         17       1    1gy4              1.846000       6.005824
                         17       1    1gy3z             1.846000      15.889916
                         17       1    1gy2z2            1.846000      20.513794
                         17       1    1gyz3             1.846000      15.889916
                         17       1    1gz4              1.846000       6.005824

     RI Auxiliary Basis Set                                                RI-5Z

       Number of orbital shell sets:                                          38
       Number of orbital shells:                                              38
       Number of primitive Cartesian functions:                               38
       Number of Cartesian basis functions:                                  259
       Number of spherical basis functions:                                  180
       Norm type:                                                              2

       Normalised Cartesian orbitals:

                        Set   Shell   Orbital            Exponent    Coefficient

                          1       1    1s              488.561000      74.062640

                          2       1    1s              105.279000      23.424288

                          3       1    1s               28.708200       8.839233

                          4       1    1s               14.825500       5.384769

                          5       1    1s                5.831540       2.674530

                          6       1    1s                3.595370       1.860878

                          7       1    1s                1.940030       1.171565

                          8       1    1s                1.058590       0.743800

                          9       1    1s                0.474911       0.407727

                         10       1    1s                0.251005       0.252739

                         11       1    1px              94.256600     418.629472
                         11       1    1py              94.256600     418.629472
                         11       1    1pz              94.256600     418.629472

                         12       1    1px              25.465100      81.540209
                         12       1    1py              25.465100      81.540209
                         12       1    1pz              25.465100      81.540209

                         13       1    1px              11.049300      28.714982
                         13       1    1py              11.049300      28.714982
                         13       1    1pz              11.049300      28.714982

                         14       1    1px               4.708760       9.887199
                         14       1    1py               4.708760       9.887199
                         14       1    1pz               4.708760       9.887199

                         15       1    1px               2.756880       5.063635
                         15       1    1py               2.756880       5.063635
                         15       1    1pz               2.756880       5.063635

                         16       1    1px               1.274280       1.929839
                         16       1    1py               1.274280       1.929839
                         16       1    1pz               1.274280       1.929839

                         17       1    1px               0.696641       0.907197
                         17       1    1py               0.696641       0.907197
                         17       1    1pz               0.696641       0.907197

                         18       1    1px               0.416519       0.476962
                         18       1    1py               0.416519       0.476962
                         18       1    1pz               0.416519       0.476962

                         19       1    1dx2             21.988200     367.486504
                         19       1    1dxy             21.988200     636.505295
                         19       1    1dxz             21.988200     636.505295
                         19       1    1dy2             21.988200     367.486504
                         19       1    1dyz             21.988200     636.505295
                         19       1    1dz2             21.988200     367.486504

                         20       1    1dx2              7.274420      53.034271
                         20       1    1dxy              7.274420      91.858053
                         20       1    1dxz              7.274420      91.858053
                         20       1    1dy2              7.274420      53.034271
                         20       1    1dyz              7.274420      91.858053
                         20       1    1dz2              7.274420      53.034271

                         21       1    1dx2              4.518780      23.051360
                         21       1    1dxy              4.518780      39.926127
                         21       1    1dxz              4.518780      39.926127
                         21       1    1dy2              4.518780      23.051360
                         21       1    1dyz              4.518780      39.926127
                         21       1    1dz2              4.518780      23.051360

                         22       1    1dx2              2.719410       9.478512
                         22       1    1dxy              2.719410      16.417264
                         22       1    1dxz              2.719410      16.417264
                         22       1    1dy2              2.719410       9.478512
                         22       1    1dyz              2.719410      16.417264
                         22       1    1dz2              2.719410       9.478512

                         23       1    1dx2              1.442130       3.123685
                         23       1    1dxy              1.442130       5.410380
                         23       1    1dxz              1.442130       5.410380
                         23       1    1dy2              1.442130       3.123685
                         23       1    1dyz              1.442130       5.410380
                         23       1    1dz2              1.442130       3.123685

                         24       1    1dx2              0.719024       0.924082
                         24       1    1dxy              0.719024       1.600557
                         24       1    1dxz              0.719024       1.600557
                         24       1    1dy2              0.719024       0.924082
                         24       1    1dyz              0.719024       1.600557
                         24       1    1dz2              0.719024       0.924082

                         25       1    1dx2              0.303063       0.203747
                         25       1    1dxy              0.303063       0.352901
                         25       1    1dxz              0.303063       0.352901
                         25       1    1dy2              0.303063       0.203747
                         25       1    1dyz              0.303063       0.352901
                         25       1    1dz2              0.303063       0.203747

                         26       1    1fx3             14.098700     567.031722
                         26       1    1fx2y            14.098700    1267.921477
                         26       1    1fx2z            14.098700    1267.921477
                         26       1    1fxy2            14.098700    1267.921477
                         26       1    1fxyz            14.098700    2196.104418
                         26       1    1fxz2            14.098700    1267.921477
                         26       1    1fy3             14.098700     567.031722
                         26       1    1fy2z            14.098700    1267.921477
                         26       1    1fyz2            14.098700    1267.921477
                         26       1    1fz3             14.098700     567.031722

                         27       1    1fx3              6.442910      97.361912
                         27       1    1fx2y             6.442910     217.707854
                         27       1    1fx2z             6.442910     217.707854
                         27       1    1fxy2             6.442910     217.707854
                         27       1    1fxyz             6.442910     377.081065
                         27       1    1fxz2             6.442910     217.707854
                         27       1    1fy3              6.442910      97.361912
                         27       1    1fy2z             6.442910     217.707854
                         27       1    1fyz2             6.442910     217.707854
                         27       1    1fz3              6.442910      97.361912

                         28       1    1fx3              3.721040      28.310609
                         28       1    1fx2y             3.721040      63.304446
                         28       1    1fx2z             3.721040      63.304446
                         28       1    1fxy2             3.721040      63.304446
                         28       1    1fxyz             3.721040     109.646517
                         28       1    1fxz2             3.721040      63.304446
                         28       1    1fy3              3.721040      28.310609
                         28       1    1fy2z             3.721040      63.304446
                         28       1    1fyz2             3.721040      63.304446
                         28       1    1fz3              3.721040      28.310609

                         29       1    1fx3              2.093740       7.763019
                         29       1    1fx2y             2.093740      17.358638
                         29       1    1fx2z             2.093740      17.358638
                         29       1    1fxy2             2.093740      17.358638
                         29       1    1fxyz             2.093740      30.066042
                         29       1    1fxz2             2.093740      17.358638
                         29       1    1fy3              2.093740       7.763019
                         29       1    1fy2z             2.093740      17.358638
                         29       1    1fyz2             2.093740      17.358638
                         29       1    1fz3              2.093740       7.763019

                         30       1    1fx3              1.185310       2.158124
                         30       1    1fx2y             1.185310       4.825711
                         30       1    1fx2z             1.185310       4.825711
                         30       1    1fxy2             1.185310       4.825711
                         30       1    1fxyz             1.185310       8.358377
                         30       1    1fxz2             1.185310       4.825711
                         30       1    1fy3              1.185310       2.158124
                         30       1    1fy2z             1.185310       4.825711
                         30       1    1fyz2             1.185310       4.825711
                         30       1    1fz3              1.185310       2.158124

                         31       1    1fx3              0.621013       0.504001
                         31       1    1fx2y             0.621013       1.126979
                         31       1    1fx2z             0.621013       1.126979
                         31       1    1fxy2             0.621013       1.126979
                         31       1    1fxyz             0.621013       1.951986
                         31       1    1fxz2             0.621013       1.126979
                         31       1    1fy3              0.621013       0.504001
                         31       1    1fy2z             0.621013       1.126979
                         31       1    1fyz2             0.621013       1.126979
                         31       1    1fz3              0.621013       0.504001

                         32       1    1gx4              7.014070     235.968042
                         32       1    1gx3y             7.014070     624.312756
                         32       1    1gx3z             7.014070     624.312756
                         32       1    1gx2y2            7.014070     805.984303
                         32       1    1gx2yz            7.014070    1396.005762
                         32       1    1gx2z2            7.014070     805.984303
                         32       1    1gxy3             7.014070     624.312756
                         32       1    1gxy2z            7.014070    1396.005762
                         32       1    1gxyz2            7.014070    1396.005762
                         32       1    1gxz3             7.014070     624.312756
                         32       1    1gy4              7.014070     235.968042
                         32       1    1gy3z             7.014070     624.312756
                         32       1    1gy2z2            7.014070     805.984303
                         32       1    1gyz3             7.014070     624.312756
                         32       1    1gz4              7.014070     235.968042

                         33       1    1gx4              3.883140      46.418255
                         33       1    1gx3y             3.883140     122.811159
                         33       1    1gx3z             3.883140     122.811159
                         33       1    1gx2y2            3.883140     158.548524
                         33       1    1gx2yz            3.883140     274.614099
                         33       1    1gx2z2            3.883140     158.548524
                         33       1    1gxy3             3.883140     122.811159
                         33       1    1gxy2z            3.883140     274.614099
                         33       1    1gxyz2            3.883140     274.614099
                         33       1    1gxz3             3.883140     122.811159
                         33       1    1gy4              3.883140      46.418255
                         33       1    1gy3z             3.883140     122.811159
                         33       1    1gy2z2            3.883140     158.548524
                         33       1    1gyz3             3.883140     122.811159
                         33       1    1gz4              3.883140      46.418255

                         34       1    1gx4              2.038250       7.886665
                         34       1    1gx3y             2.038250      20.866155
                         34       1    1gx3z             2.038250      20.866155
                         34       1    1gx2y2            2.038250      26.938091
                         34       1    1gx2yz            2.038250      46.658142
                         34       1    1gx2z2            2.038250      26.938091
                         34       1    1gxy3             2.038250      20.866155
                         34       1    1gxy2z            2.038250      46.658142
                         34       1    1gxyz2            2.038250      46.658142
                         34       1    1gxz3             2.038250      20.866155
                         34       1    1gy4              2.038250       7.886665
                         34       1    1gy3z             2.038250      20.866155
                         34       1    1gy2z2            2.038250      26.938091
                         34       1    1gyz3             2.038250      20.866155
                         34       1    1gz4              2.038250       7.886665

                         35       1    1gx4              1.007810       1.136912
                         35       1    1gx3y             1.007810       3.007986
                         35       1    1gx3z             1.007810       3.007986
                         35       1    1gx2y2            1.007810       3.883293
                         35       1    1gx2yz            1.007810       6.726061
                         35       1    1gx2z2            1.007810       3.883293
                         35       1    1gxy3             1.007810       3.007986
                         35       1    1gxy2z            1.007810       6.726061
                         35       1    1gxyz2            1.007810       6.726061
                         35       1    1gxz3             1.007810       3.007986
                         35       1    1gy4              1.007810       1.136912
                         35       1    1gy3z             1.007810       3.007986
                         35       1    1gy2z2            1.007810       3.883293
                         35       1    1gyz3             1.007810       3.007986
                         35       1    1gz4              1.007810       1.136912

                         36       1    1hx5              5.427550     181.053374
                         36       1    1hx4y             5.427550     543.160123
                         36       1    1hx4z             5.427550     543.160123
                         36       1    1hx3y2            5.427550     829.690793
                         36       1    1hx3yz            5.427550    1437.066608
                         36       1    1hx3z2            5.427550     829.690793
                         36       1    1hx2y3            5.427550     829.690793
                         36       1    1hx2y2z           5.427550    1855.245014
                         36       1    1hx2yz2           5.427550    1855.245014
                         36       1    1hx2z3            5.427550     829.690793
                         36       1    1hxy4             5.427550     543.160123
                         36       1    1hxy3z            5.427550    1437.066608
                         36       1    1hxy2z2           5.427550    1855.245014
                         36       1    1hxyz3            5.427550    1437.066608
                         36       1    1hxz4             5.427550     543.160123
                         36       1    1hy5              5.427550     181.053374
                         36       1    1hy4z             5.427550     543.160123
                         36       1    1hy3z2            5.427550     829.690793
                         36       1    1hy2z3            5.427550     829.690793
                         36       1    1hyz4             5.427550     543.160123
                         36       1    1hz5              5.427550     181.053374

                         37       1    1hx5              3.223120      33.284552
                         37       1    1hx4y             3.223120      99.853655
                         37       1    1hx4z             3.223120      99.853655
                         37       1    1hx3y2            3.223120     152.528977
                         37       1    1hx3yz            3.223120     264.187938
                         37       1    1hx3z2            3.223120     152.528977
                         37       1    1hx2y3            3.223120     152.528977
                         37       1    1hx2y2z           3.223120     341.065161
                         37       1    1hx2yz2           3.223120     341.065161
                         37       1    1hx2z3            3.223120     152.528977
                         37       1    1hxy4             3.223120      99.853655
                         37       1    1hxy3z            3.223120     264.187938
                         37       1    1hxy2z2           3.223120     341.065161
                         37       1    1hxyz3            3.223120     264.187938
                         37       1    1hxz4             3.223120      99.853655
                         37       1    1hy5              3.223120      33.284552
                         37       1    1hy4z             3.223120      99.853655
                         37       1    1hy3z2            3.223120     152.528977
                         37       1    1hy2z3            3.223120     152.528977
                         37       1    1hyz4             3.223120      99.853655
                         37       1    1hz5              3.223120      33.284552

                         38       1    1hx5              1.724010       4.356106
                         38       1    1hx4y             1.724010      13.068318
                         38       1    1hx4z             1.724010      13.068318
                         38       1    1hx3y2            1.724010      19.962186
                         38       1    1hx3yz            1.724010      34.575521
                         38       1    1hx3z2            1.724010      19.962186
                         38       1    1hx2y3            1.724010      19.962186
                         38       1    1hx2y2z           1.724010      44.636805
                         38       1    1hx2yz2           1.724010      44.636805
                         38       1    1hx2z3            1.724010      19.962186
                         38       1    1hxy4             1.724010      13.068318
                         38       1    1hxy3z            1.724010      34.575521
                         38       1    1hxy2z2           1.724010      44.636805
                         38       1    1hxyz3            1.724010      34.575521
[...]
 flops    57 x     6 x    57                38988       0.0%    100.0%      0.0%
 flops    57 x    36 x     6                49248       0.0%    100.0%      0.0%
 flops    57 x    57 x     6                77976       0.0%    100.0%      0.0%
 flops    36 x    36 x    36                93312       0.0%    100.0%      0.0%
 flops    57 x    36 x    36               147744       0.0%    100.0%      0.0%
 flops    36 x    36 x    57               147744       0.0%    100.0%      0.0%
 flops    57 x    36 x    57               233928       0.0%    100.0%      0.0%
 flops    93 x    93 x    93              1608714       0.0%    100.0%      0.0%
 flops   180 x   180 x   180            349920000       0.0%    100.0%      0.0%
 flops   193 x   180 x   180            375192000       0.0%    100.0%      0.0%
 flops   180 x   180 x   193            375192000       0.0%    100.0%      0.0%
 flops   180 x   193 x   180            375192000       0.0%    100.0%      0.0%
 flops   193 x   180 x   193            402289200       0.0%    100.0%      0.0%
 flops   193 x   193 x   180            402289200       0.0%    100.0%      0.0%
 flops   180 x   193 x   193            402289200       0.0%    100.0%      0.0%
 flops   193 x   193 x   193            431343420       0.0%    100.0%      0.0%
 flops inhomo. stacks                           0       0.0%      0.0%      0.0%
 flops total                         3.116201E+09       0.0%    100.0%      0.0%
 flops max/rank                      3.116201E+09       0.0%    100.0%      0.0%
 matmuls inhomo. stacks                         0       0.0%      0.0%      0.0%
 matmuls total                                255       0.0%    100.0%      0.0%
 number of processed stacks                   255       0.0%    100.0%      0.0%
 average stack size                                     0.0       1.0       0.0
 marketing flops                     3.114573E+09
 -------------------------------------------------------------------------------
 # multiplications                             35
 max memory usage/rank               1.724285E+09
 # max total images/rank                        1
 # max 3D layers                                1
 # MPI messages exchanged                       0
 -------------------------------------------------------------------------------
 -                                                                             -
 -                      DBCSR MESSAGE PASSING PERFORMANCE                      -
 -                                                                             -
 -------------------------------------------------------------------------------
 ROUTINE             CALLS      AVE VOLUME [Bytes]
 MP_Bcast               21                     12.
 MP_Allreduce          205                     13.
 MP_Alltoall          1604                 283867.
 MP_ISend              140                     77.
 MP_IRecv              140                     77.
 -------------------------------------------------------------------------------

 -------------------------------------------------------------------------------
 -                                                                             -
 -                                DBM STATISTICS                               -
 -                                                                             -
 -------------------------------------------------------------------------------
    M  x    N  x    K                                          COUNT     PERCENT
    ?  x    ?  x   ??                                       14019637      43.24%
   ??  x    ?  x    ?                                        9469602      29.21%
    ?  x    ?  x    ?                                        2385502       7.36%
    ?  x   ??  x   ??                                        2194931       6.77%
   ??  x    ?  x   ??                                        2107316       6.50%
    ?  x   ??  x    ?                                         922320       2.84%
    ?  x  ???  x    ?                                         745380       2.30%
   ??  x   ??  x   ??                                         327968       1.01%
   ??  x   ??  x    ?                                          86940       0.27%
    ?  x  ???  x   ??                                          57960       0.18%
   ??  x  ???  x    ?                                          57960       0.18%
  ???  x    ?  x    ?                                          35722       0.11%
   ??  x  ???  x   ??                                           8820       0.03%
 -------------------------------------------------------------------------------

 -------------------------------------------------------------------------------
 -                                                                             -
 -                                GRID STATISTICS                              -
 -                                                                             -
 -------------------------------------------------------------------------------
 LP    KERNEL             BACKEND                              COUNT     PERCENT
 2     collocate ortho    CPU                                    240      11.76%
 2     integrate ortho    CPU                                    240      11.76%
 1     collocate ortho    CPU                                    218      10.69%
 1     integrate ortho    CPU                                    218      10.69%
 3     collocate ortho    CPU                                    204      10.00%
 3     integrate ortho    CPU                                    204      10.00%
 4     collocate ortho    CPU                                    140       6.86%
 4     integrate ortho    CPU                                    140       6.86%
 0     collocate ortho    CPU                                     98       4.80%
 0     integrate ortho    CPU                                     98       4.80%
 5     collocate ortho    CPU                                     72       3.53%
 5     integrate ortho    CPU                                     72       3.53%
 6     collocate ortho    CPU                                     30       1.47%
 6     integrate ortho    CPU                                     30       1.47%
 7     collocate ortho    CPU                                     10       0.49%
 7     integrate ortho    CPU                                     10       0.49%
 2     collocate general  CPU                                      4       0.20%
 2     integrate general  CPU                                      4       0.20%
 8     collocate ortho    CPU                                      2       0.10%
 8     integrate ortho    CPU                                      2       0.10%
 0     collocate general  CPU                                      2       0.10%
 0     integrate general  CPU                                      2       0.10%
 -------------------------------------------------------------------------------

 MEMORY| Estimated peak process memory [MiB]                                1694

 -------------------------------------------------------------------------------
 ----                             MULTIGRID INFO                            ----
 -------------------------------------------------------------------------------
 count for grid        1:          10142          cutoff [a.u.]          200.00
 count for grid        2:           1442          cutoff [a.u.]           66.67
 count for grid        3:            820          cutoff [a.u.]           22.22
 count for grid        4:            294          cutoff [a.u.]            7.41
 total gridlevel count  :          12698

 -------------------------------------------------------------------------------
 -                                                                             -
 -                         MESSAGE PASSING PERFORMANCE                         -
 -                                                                             -
 -------------------------------------------------------------------------------

 ROUTINE             CALLS      AVE VOLUME [Bytes]
 MP_Group             2229
 MP_Bcast              830                   6286.
 MP_Allreduce         2581                   1113.
 MP_Sync              3545
 MP_Alltoall           618                     14.
 MP_Wait                10
 MP_comm_split         792
 MP_ISend               14                 159010.
 MP_IRecv               14                 159010.
 -------------------------------------------------------------------------------


 -------------------------------------------------------------------------------
 -                                                                             -
 -                           R E F E R E N C E S                               -
 -                                                                             -
 -------------------------------------------------------------------------------
 
 CP2K version 2024.1 (Development Version), the CP2K developers group (2024).
 CP2K is freely available from https://www.cp2k.org/ .

 Kuehne,Thomas D.; Iannuzzi,Marcella; Del Ben,Mauro;
 Rybkin,Vladimir V.; Seewald,Patrick; Stein,Frederick; Laino,Teodoro;
 Khaliullin,Rustam Z.; Schuett,Ole; Schiffmann,Florian; Golze,Dorothea;
 Wilhelm,Jan; Chulkov,Sergey; Bani-Hashemian,Mohammad Hossein;
 Weber,Valery; Borstnik,Urban; Taillefumier,Mathieu;
 Jakobovits,Alice Shoshana; Lazzaro,Alfio; Pabst,Hans; Mueller,Tiziano;
 Schade,Robert; Guidon,Manuel; Andermatt,Samuel; Holmberg,Nico;
 Schenter,Gregory K.; Hehn,Anna; Bussy,Augustin; Belleflamme,Fabian;
 Tabacchi,Gloria; Gloess,Andreas; Lass,Michael; Bethune,Iain;
 Mundy,Christopher J.; Plessl,Christian; Watkins,Matt;
 VandeVondele,Joost; Krack,Matthias; Hutter,Juerg. 
 The Journal of Chemical Physics, 152 (19), (2020). 
 CP2K: An electronic structure and molecular dynamics software package -
 Quickstep: Efficient and accurate electronic structure calculations.
 https://doi.org/10.1063/5.0007045

 Wilhelm, J; Golze, D; Talirz, L; Hutter, J; Pignedoli, CA. 
 JOURNAL OF PHYSICAL CHEMISTRY LETTERS, 9, 306-312 (2018). 
 Toward GW calculations on thousands of atoms.
 https://doi.org/10.1021/acs.jpclett.7b02740

 Wilhelm, J; Hutter, J. PHYSICAL REVIEW B, 95, 235123 (2017). 
 Periodic GW calculations in the Gaussian and plane-waves scheme.
 https://doi.org/10.1103/PhysRevB.95.235123

 Wilhelm, J; Del Ben, M; Hutter, J. 
 JOURNAL OF CHEMICAL THEORY AND COMPUTATION, 12, 3623-3635 (2016). 
 GW in the Gaussian and plane waves scheme with application to linear acenes.
 https://doi.org/10.1021/acs.jctc.6b00380

 Wilhelm, J; Seewald, P; Del Ben, M; Hutter, J. 
 JOURNAL OF CHEMICAL THEORY AND COMPUTATION, 12, 5851-5859 (2016). 
 Large-Scale Cubic-Scaling Random Phase Approximation Correlation.
 https://doi.org/10.1021/acs.jctc.6b00840

 Schuett, Ole; Messmer, Peter; Hutter, Juerg; VandeVondele, Joost. 
 Electronic Structure Calculations on Graphics Processing Units, John
 Wiley & Sons, Ltd, 173-190 (2016). 
 GPU-Accelerated Sparse Matrix-Matrix Multiplication for
 Linear Scaling Density Functional Theory.
 https://doi.org/10.1002/9781118670712.ch8

 Heinecke, A; Henry, G; Hutchinson, M; Pabst, H. 
 Proceedings of Intl. Supercomputing Conference, 981-991 (2016). 
 LIBXSMM: Accelerating Small Matrix Multiplications
 by Runtime Code Generation.
 https://doi.org/10.1109/SC.2016.83

 Del Ben, M; Schuett, O; Wentz, T; Messmer, P; Hutter, J;
 VandeVondele, J. 
 COMPUTER PHYSICS COMMUNICATIONS, 187, 120-129 (2015). 
 Enabling simulation at the fifth rung of DFT: Large scale RPA
 calculations with excellent time to solution.
 https://doi.org/10.1016/j.cpc.2014.10.021

 Borstnik, U; VandeVondele, J; Weber, V; Hutter, J. 
 PARALLEL COMPUTING, 40 (5-6), 47-58 (2014). 
 Sparse matrix multiplication: The distributed block-compressed sparse
 row library.
 https://doi.org/10.1016/j.parco.2014.03.012

 Hutter, J; Iannuzzi, M; Schiffmann, F; VandeVondele, J. 
 WIREs Comput Mol Sci., 4 (1), 15-25 (2014). 
 CP2K: atomistic simulations of condensed matter systems.
 https://doi.org/10.1002/wcms.1159

 Del Ben, M; Hutter, J; VandeVondele, J. 
 JOURNAL OF CHEMICAL THEORY AND COMPUTATION, 9 (6), 2654-2671 (2013). 
 Electron Correlation in the Condensed Phase from a Resolution of
 Identity Approach Based on the Gaussian and Plane Waves Scheme.
 https://doi.org/10.1021/ct4002202

 Del Ben, M; Hutter, J; VandeVondele, J. 
 JOURNAL OF CHEMICAL THEORY AND COMPUTATION, 8 (11), 4177-4188 (2012). 
 Second-Order Moller-Plesset Perturbation Theory in the Condensed Phase:
 An Efficient and Massively Parallel Gaussian and Plane Waves Approach.
 https://doi.org/10.1021/ct300531w

 Guidon, M; Hutter, J; VandeVondele, J. 
 JOURNAL OF CHEMICAL THEORY AND COMPUTATION, 5 (11), 3010-3021 (2009). 
 Robust Periodic Hartree-Fock Exchange for Large-Scale Simulations Using
 Gaussian Basis Sets.
 https://doi.org/10.1021/ct900494g

 Guidon, M; Schiffmann, F; Hutter, J; VandeVondele, J. 
 JOURNAL OF CHEMICAL PHYSICS, 128 (21), 214104 (2008). 
 Ab initio molecular dynamics using hybrid density functionals.
 https://doi.org/10.1063/1.2931945

 Frigo, M; Johnson, SG. 
 PROCEEDINGS OF THE IEEE, 93 (2), 216-231 (2005). 
 The design and implementation of FFTW3.
 https://doi.org/10.1109/JPROC.2004.840301

 Lippert, G; Hutter, J; Parrinello, M. 
 THEORETICAL CHEMISTRY ACCOUNTS, 103 (2), 124-140 (1999). 
 The Gaussian and augmented-plane-wave density functional method for ab
 initio molecular dynamics simulations.
 https://doi.org/10.1007/s002140050523

 Krack, M; Parrinello, M. 
 PHYSICAL CHEMISTRY CHEMICAL PHYSICS, 2 (10), 2105-2112 (2000). 
 All-electron ab-initio molecular dynamics.
 https://doi.org/10.1039/b001167n

 Martyna, GJ; Tuckerman, ME. 
 JOURNAL OF CHEMICAL PHYSICS, 110 (6), 2810-2821 (1999). 
 A reciprocal space based method for treating long range interactions in
 ab initio and force-field-based calculations in clusters.
 https://doi.org/10.1063/1.477923

 Perdew, JP; Burke, K; Ernzerhof, M. 
 PHYSICAL REVIEW LETTERS, 77 (18), 3865-3868 (1996). 
 Generalized gradient approximation made simple.
 https://doi.org/10.1103/PhysRevLett.77.3865


 -------------------------------------------------------------------------------
 -                                                                             -
 -                                T I M I N G                                  -
 -                                                                             -
 -------------------------------------------------------------------------------
 SUBROUTINE                       CALLS  ASD         SELF TIME        TOTAL TIME
                                MAXIMUM       AVERAGE  MAXIMUM  AVERAGE  MAXIMUM
 CP2K                                 1  1.0    0.024    0.024   39.947   39.947
 qs_energies                          1  2.0    0.000    0.000   38.011   38.011
 mp2_main                             1  3.0    0.000    0.000   28.274   28.274
 mp2_gpw_main                         1  4.0    0.000    0.000   19.948   19.948
 rpa_ri_compute_en                    1  5.0    0.000    0.000   19.127   19.127
 rpa_num_int                          1  6.0    0.000    0.000   19.127   19.127
 dbt_total                         1029  9.1    0.003    0.003   16.204   16.204
 integrate_four_center                3  7.0    0.001    0.001   15.299   15.299
 compute_mat_P_omega                  1  7.0    0.003    0.003   14.968   14.968
 compute_mat_P_omega_contract        30  8.0    0.283    0.283   14.878   14.878
 dbt_contract                       181 11.0    0.006    0.006   13.117   13.117
 dbt_tas_total                      396 11.9    0.141    0.141   12.062   12.062
 dbt_tas_multiply                   216 12.5    0.000    0.000   11.915   11.915
 qs_ks_build_kohn_sham_matrix         2  6.0    0.000    0.000    9.878    9.878
 scf_env_do_scf                       1  3.0    0.000    0.000    9.497    9.497
 scf_env_do_scf_inner_loop            1  4.0    0.000    0.000    9.497    9.497
 qs_ks_update_qs_env                  1  5.0    0.000    0.000    9.350    9.350
 rebuild_ks_matrix                    1  6.0    0.000    0.000    9.350    9.350
 dbt_tas_dbm                        216 14.5    0.001    0.001    9.334    9.334
 dbm_multiply                       216 16.5    9.332    9.332    9.332    9.332
 compute_vec_Sigma_x_minus_vxc_       1  4.0    0.000    0.000    8.322    8.322
 hfx_ks_matrix                        2  7.0    0.000    0.000    7.507    7.507
 calc_screening_functions             2  8.0    4.915    4.915    6.636    6.636
 integrate_four_center_main           3  8.0    0.000    0.000    5.901    5.901
 integrate_four_center_bin            3  9.0    5.900    5.900    5.900    5.900
 dbt_tas_mm_1N                      122 15.8    0.000    0.000    4.980    4.980
 compute_mat_P_omega_calc_P_t        30  9.0    0.000    0.000    4.499    4.499
 dbt_tas_mm_2                        31 15.1    0.000    0.000    3.781    3.781
 compute_mat_P_omega_calc_M_vir      30  9.0    0.000    0.000    3.659    3.659
 compute_mat_P_omega_calc_M_occ      30  9.0    0.278    0.278    3.620    3.620
 powell_optimize                2265346  9.0    3.019    3.019    3.019    3.019
 dbt_copy                           368 10.2    0.006    0.006    2.936    2.936
 calc_pair_dist_radii                 2  8.0    1.444    1.444    2.741    2.741
 compute_QP_energies                  1  7.0    0.030    0.030    2.656    2.656
 compute_self_energy_cubic_gw         1  8.0    0.005    0.005    2.562    2.562
 contract_cubic_gw                   60  9.0    0.000    0.000    1.879    1.879
 qs_init_subsys                       1  2.0    0.001    0.001    1.845    1.845
 qs_env_setup                         1  3.0    0.000    0.000    1.807    1.807
 qs_env_rebuild_pw_env                2  3.5    0.000    0.000    1.807    1.807
 pw_env_rebuild                       1  5.0    0.000    0.000    1.807    1.807
 pw_grid_setup                        5  6.0    0.000    0.000    1.804    1.804
 pw_grid_setup_internal               5  7.0    0.035    0.035    1.804    1.804
 dbt_reshape                         93 11.9    1.240    1.240    1.622    1.622
 pw_grid_sort                         5  8.0    1.283    1.283    1.603    1.603
 compute_mat_P_omega_copy_M_occ      30  9.0    0.000    0.000    1.450    1.450
 fft_wrap_pw1pw2                     30  9.5    0.000    0.000    1.347    1.347
 dbt_crop                           212 12.0    0.956    0.956    1.198    1.198
 convert_to_new_pgrid               648 14.5    0.003    0.003    0.988    0.988
 dbm_copy                           432 15.5    0.984    0.984    0.984    0.984
 dbt_tas_reserve_blocks_index      1449 14.1    0.522    0.522    0.957    0.957
 fft_wrap_pw1pw2_200                 17 10.8    0.039    0.039    0.936    0.936
 qs_vxc_create                        2  7.0    0.000    0.000    0.874    0.874
 xc_vxc_pw_create                     1  9.0    0.016    0.016    0.874    0.874
 pw_poisson_solve                     2  7.0    0.000    0.000    0.841    0.841
 mp2_ri_gpw_compute_in                1  5.0    0.001    0.001    0.819    0.819
 get_minimax_grid                     1  7.0    0.000    0.000    0.815    0.815
 -------------------------------------------------------------------------------

 The number of warnings for this run is : 2
 
 -------------------------------------------------------------------------------
  **** **** ******  **  PROGRAM ENDED AT                 2024-05-14 10:45:01.761
 ***** ** ***  *** **   PROGRAM RAN ON                               surface-mia
 **    ****   ******    PROGRAM RAN BY                                       mia
 ***** **    ** ** **   PROGRAM PROCESS ID                                 17248
  **** **  *******  **  PROGRAM STOPPED IN /home/mia/Dokumente/GW100/Paper/Low_S
                                           caling/3_BeO_PBE0
