------------------------------------------------------------
          Invoking FHI-aims ...

          When using FHI-aims, please cite the following reference:

            Volker Blum, Ralf Gehrke, Felix Hanke, Paula Havu,
            Ville Havu, Xinguo Ren, Karsten Reuter, and Matthias Scheffler,
            'Ab Initio Molecular Simulations with Numeric Atom-Centered Orbitals',
            Computer Physics Communications 180, 2175-2196 (2009)

          In addition, many other developments in FHI-aims are likely important for
          your particular application. A partial list of references is given at the end of
          this file. Thank you for giving credit to the authors of these developments.

          For any questions about FHI-aims, please visit our slack channel at

            https://fhi-aims.slack.com

          and our main development and support site at

            https://aims-git.rz-berlin.mpg.de .

          The latter site, in particular, has a wiki to collect information, as well
          as an issue tracker to log discussions, suggest improvements, and report issues
          or bugs. https://aims-git.rz-berlin.mpg.de is also the main development site
          of the project and all new and updated code versions can be obtained there.
          Please send an email to aims-coordinators@fhi-berlin.mpg.de and we will add
          you to these sites. They are for you and everyone is welcome there.

------------------------------------------------------------



  Date     :  20240515, Time     :  050845.901
  Time zero on CPU 1             :   0.428762000000000E+00  s.
  Internal wall clock time zero  :           484981725.901  s.

  FHI-aims created a unique identifier for this run for later identification
  aims_uuid : B8F0A30A-15FC-404B-AB49-60237F153AD5

  Build configuration of the current instance of FHI-aims
  -------------------------------------------------------
  FHI-aims version      : 221103.1
  Commit number         : GITDIR-NOTFOUND
  CMake host system     : Linux-4.18.0-372.32.1.el8_6.x86_64
  CMake version         : 3.24.3
  Fortran compiler      : /opt/software/pc2/EB-SW/software/OpenMPI/4.1.4-GCC-12.2.0/bin/mpifort (GNU) version 12.2.0
  Fortran compiler flags: -O3 -ffree-line-length-none -fallow-argument-mismatch -march=znver3 -mprefer-vector-width=256
  C compiler            : /opt/software/pc2/EB-SW/software/GCCcore/12.2.0/bin/gcc (GNU) version 12.2.0
  C compiler flags      : -O3 -DNDEBUG -funroll-loops -march=znver3 -mprefer-vector-width=256
  HIP compiler          :
  HIP compiler flags    :
  HIP GPU arch          :
  Using MPI
  Using ScaLAPACK
  Using LibXC
  Using i-PI
  Using RLSY
  Linking against: /opt/software/pc2/EB-SW/software/ScaLAPACK/2.2.0-gompi-2022b-fb/lib/libscalapack.so
                   /opt/software/pc2/EB-SW/software/OpenBLAS/0.3.21-GCC-12.2.0/lib/libopenblas.so

  Using      512 parallel tasks.
  Task        0 on host n2cn1028.ab2021.local reporting.
  Task        1 on host n2cn1028.ab2021.local reporting.
  Task        2 on host n2cn1028.ab2021.local reporting.
  Task        3 on host n2cn1028.ab2021.local reporting.
  Task        4 on host n2cn1028.ab2021.local reporting.
  Task        5 on host n2cn1028.ab2021.local reporting.
  Task        6 on host n2cn1028.ab2021.local reporting.
  Task        7 on host n2cn1028.ab2021.local reporting.
  Task        8 on host n2cn1028.ab2021.local reporting.
  Task        9 on host n2cn1028.ab2021.local reporting.
  Task       10 on host n2cn1028.ab2021.local reporting.
  Task       11 on host n2cn1028.ab2021.local reporting.
  Task       12 on host n2cn1028.ab2021.local reporting.
  Task       13 on host n2cn1028.ab2021.local reporting.
  Task       14 on host n2cn1028.ab2021.local reporting.
  Task       15 on host n2cn1028.ab2021.local reporting.
  Task       16 on host n2cn1028.ab2021.local reporting.
  Task       17 on host n2cn1028.ab2021.local reporting.
  Task       18 on host n2cn1028.ab2021.local reporting.
  Task       19 on host n2cn1028.ab2021.local reporting.
  Task       20 on host n2cn1028.ab2021.local reporting.
  Task       21 on host n2cn1028.ab2021.local reporting.
  Task       22 on host n2cn1028.ab2021.local reporting.
  Task       23 on host n2cn1028.ab2021.local reporting.
  Task       24 on host n2cn1028.ab2021.local reporting.
  Task       25 on host n2cn1028.ab2021.local reporting.
  Task       26 on host n2cn1028.ab2021.local reporting.
  Task       27 on host n2cn1028.ab2021.local reporting.
  Task       28 on host n2cn1028.ab2021.local reporting.
  Task       29 on host n2cn1028.ab2021.local reporting.
  Task       30 on host n2cn1028.ab2021.local reporting.
  Task       31 on host n2cn1028.ab2021.local reporting.
  Task       32 on host n2cn1028.ab2021.local reporting.
  Task       33 on host n2cn1028.ab2021.local reporting.
  Task       34 on host n2cn1028.ab2021.local reporting.
  Task       35 on host n2cn1028.ab2021.local reporting.
  Task       36 on host n2cn1028.ab2021.local reporting.
  Task       37 on host n2cn1028.ab2021.local reporting.
  Task       38 on host n2cn1028.ab2021.local reporting.
  Task       39 on host n2cn1028.ab2021.local reporting.
  Task       40 on host n2cn1028.ab2021.local reporting.
  Task       41 on host n2cn1028.ab2021.local reporting.
  Task       42 on host n2cn1028.ab2021.local reporting.
  Task       43 on host n2cn1028.ab2021.local reporting.
  Task       44 on host n2cn1028.ab2021.local reporting.
  Task       45 on host n2cn1028.ab2021.local reporting.
  Task       46 on host n2cn1028.ab2021.local reporting.
  Task       47 on host n2cn1028.ab2021.local reporting.
  Task       48 on host n2cn1028.ab2021.local reporting.
  Task       49 on host n2cn1028.ab2021.local reporting.
  Task       50 on host n2cn1028.ab2021.local reporting.
  Task       51 on host n2cn1028.ab2021.local reporting.
  Task       52 on host n2cn1028.ab2021.local reporting.
  Task       53 on host n2cn1028.ab2021.local reporting.
  Task       54 on host n2cn1028.ab2021.local reporting.
  Task       55 on host n2cn1028.ab2021.local reporting.
  Task       56 on host n2cn1028.ab2021.local reporting.
  Task       57 on host n2cn1028.ab2021.local reporting.
  Task       58 on host n2cn1028.ab2021.local reporting.
  Task       59 on host n2cn1028.ab2021.local reporting.
  Task       60 on host n2cn1028.ab2021.local reporting.
  Task       61 on host n2cn1028.ab2021.local reporting.
  Task       62 on host n2cn1028.ab2021.local reporting.
  Task       63 on host n2cn1028.ab2021.local reporting.
  Task       64 on host n2cn1028.ab2021.local reporting.
  Task       65 on host n2cn1028.ab2021.local reporting.
  Task       66 on host n2cn1028.ab2021.local reporting.
  Task       67 on host n2cn1028.ab2021.local reporting.
  Task       68 on host n2cn1028.ab2021.local reporting.
  Task       69 on host n2cn1028.ab2021.local reporting.
  Task       70 on host n2cn1028.ab2021.local reporting.
  Task       71 on host n2cn1028.ab2021.local reporting.
  Task       72 on host n2cn1028.ab2021.local reporting.
  Task       73 on host n2cn1028.ab2021.local reporting.
  Task       74 on host n2cn1028.ab2021.local reporting.
  Task       75 on host n2cn1028.ab2021.local reporting.
  Task       76 on host n2cn1028.ab2021.local reporting.
  Task       77 on host n2cn1028.ab2021.local reporting.
  Task       78 on host n2cn1028.ab2021.local reporting.
  Task       79 on host n2cn1028.ab2021.local reporting.
  Task       80 on host n2cn1028.ab2021.local reporting.
  Task       81 on host n2cn1028.ab2021.local reporting.
  Task       82 on host n2cn1028.ab2021.local reporting.
  Task       83 on host n2cn1028.ab2021.local reporting.
  Task       84 on host n2cn1028.ab2021.local reporting.
  Task       85 on host n2cn1028.ab2021.local reporting.
  Task       86 on host n2cn1028.ab2021.local reporting.
  Task       87 on host n2cn1028.ab2021.local reporting.
  Task       88 on host n2cn1028.ab2021.local reporting.
  Task       89 on host n2cn1028.ab2021.local reporting.
  Task       90 on host n2cn1028.ab2021.local reporting.
  Task       91 on host n2cn1028.ab2021.local reporting.
  Task       92 on host n2cn1028.ab2021.local reporting.
  Task       93 on host n2cn1028.ab2021.local reporting.
  Task       94 on host n2cn1028.ab2021.local reporting.
  Task       95 on host n2cn1028.ab2021.local reporting.
  Task       96 on host n2cn1028.ab2021.local reporting.
  Task       97 on host n2cn1028.ab2021.local reporting.
  Task       98 on host n2cn1028.ab2021.local reporting.
  Task       99 on host n2cn1028.ab2021.local reporting.
  Task      100 on host n2cn1028.ab2021.local reporting.
  Task      101 on host n2cn1028.ab2021.local reporting.
  Task      102 on host n2cn1028.ab2021.local reporting.
  Task      103 on host n2cn1028.ab2021.local reporting.
  Task      104 on host n2cn1028.ab2021.local reporting.
  Task      105 on host n2cn1028.ab2021.local reporting.
  Task      106 on host n2cn1028.ab2021.local reporting.
  Task      107 on host n2cn1028.ab2021.local reporting.
  Task      108 on host n2cn1028.ab2021.local reporting.
  Task      109 on host n2cn1028.ab2021.local reporting.
  Task      110 on host n2cn1028.ab2021.local reporting.
  Task      111 on host n2cn1028.ab2021.local reporting.
  Task      112 on host n2cn1028.ab2021.local reporting.
  Task      113 on host n2cn1028.ab2021.local reporting.
  Task      114 on host n2cn1028.ab2021.local reporting.
  Task      115 on host n2cn1028.ab2021.local reporting.
  Task      116 on host n2cn1028.ab2021.local reporting.
  Task      117 on host n2cn1028.ab2021.local reporting.
  Task      118 on host n2cn1028.ab2021.local reporting.
  Task      119 on host n2cn1028.ab2021.local reporting.
  Task      120 on host n2cn1028.ab2021.local reporting.
  Task      121 on host n2cn1028.ab2021.local reporting.
  Task      122 on host n2cn1028.ab2021.local reporting.
  Task      123 on host n2cn1028.ab2021.local reporting.
  Task      124 on host n2cn1028.ab2021.local reporting.
  Task      125 on host n2cn1028.ab2021.local reporting.
  Task      126 on host n2cn1028.ab2021.local reporting.
  Task      127 on host n2cn1028.ab2021.local reporting.
  Task      128 on host n2cn1029 reporting.
  Task      129 on host n2cn1029 reporting.
  Task      130 on host n2cn1029 reporting.
  Task      131 on host n2cn1029 reporting.
  Task      132 on host n2cn1029 reporting.
  Task      133 on host n2cn1029 reporting.
  Task      134 on host n2cn1029 reporting.
  Task      135 on host n2cn1029 reporting.
  Task      136 on host n2cn1029 reporting.
  Task      137 on host n2cn1029 reporting.
  Task      138 on host n2cn1029 reporting.
  Task      139 on host n2cn1029 reporting.
  Task      140 on host n2cn1029 reporting.
  Task      141 on host n2cn1029 reporting.
  Task      142 on host n2cn1029 reporting.
  Task      143 on host n2cn1029 reporting.
  Task      144 on host n2cn1029 reporting.
  Task      145 on host n2cn1029 reporting.
  Task      146 on host n2cn1029 reporting.
  Task      147 on host n2cn1029 reporting.
  Task      148 on host n2cn1029 reporting.
  Task      149 on host n2cn1029 reporting.
  Task      150 on host n2cn1029 reporting.
  Task      151 on host n2cn1029 reporting.
  Task      152 on host n2cn1029 reporting.
  Task      153 on host n2cn1029 reporting.
  Task      154 on host n2cn1029 reporting.
  Task      155 on host n2cn1029 reporting.
  Task      156 on host n2cn1029 reporting.
  Task      157 on host n2cn1029 reporting.
  Task      158 on host n2cn1029 reporting.
  Task      159 on host n2cn1029 reporting.
  Task      160 on host n2cn1029 reporting.
  Task      161 on host n2cn1029 reporting.
  Task      162 on host n2cn1029 reporting.
  Task      163 on host n2cn1029 reporting.
  Task      164 on host n2cn1029 reporting.
  Task      165 on host n2cn1029 reporting.
  Task      166 on host n2cn1029 reporting.
  Task      167 on host n2cn1029 reporting.
  Task      168 on host n2cn1029 reporting.
  Task      169 on host n2cn1029 reporting.
  Task      170 on host n2cn1029 reporting.
  Task      171 on host n2cn1029 reporting.
  Task      172 on host n2cn1029 reporting.
  Task      173 on host n2cn1029 reporting.
  Task      174 on host n2cn1029 reporting.
  Task      175 on host n2cn1029 reporting.
  Task      176 on host n2cn1029 reporting.
  Task      177 on host n2cn1029 reporting.
  Task      178 on host n2cn1029 reporting.
  Task      179 on host n2cn1029 reporting.
  Task      180 on host n2cn1029 reporting.
  Task      181 on host n2cn1029 reporting.
  Task      182 on host n2cn1029 reporting.
  Task      183 on host n2cn1029 reporting.
  Task      184 on host n2cn1029 reporting.
  Task      185 on host n2cn1029 reporting.
  Task      186 on host n2cn1029 reporting.
  Task      187 on host n2cn1029 reporting.
  Task      188 on host n2cn1029 reporting.
  Task      189 on host n2cn1029 reporting.
  Task      190 on host n2cn1029 reporting.
  Task      191 on host n2cn1029 reporting.
  Task      192 on host n2cn1029 reporting.
  Task      193 on host n2cn1029 reporting.
  Task      194 on host n2cn1029 reporting.
  Task      195 on host n2cn1029 reporting.
  Task      196 on host n2cn1029 reporting.
  Task      197 on host n2cn1029 reporting.
  Task      198 on host n2cn1029 reporting.
  Task      199 on host n2cn1029 reporting.
  Task      200 on host n2cn1029 reporting.
  Task      201 on host n2cn1029 reporting.
  Task      202 on host n2cn1029 reporting.
  Task      203 on host n2cn1029 reporting.
  Task      204 on host n2cn1029 reporting.
  Task      205 on host n2cn1029 reporting.
  Task      206 on host n2cn1029 reporting.
  Task      207 on host n2cn1029 reporting.
  Task      208 on host n2cn1029 reporting.
  Task      209 on host n2cn1029 reporting.
  Task      210 on host n2cn1029 reporting.
  Task      211 on host n2cn1029 reporting.
  Task      212 on host n2cn1029 reporting.
  Task      213 on host n2cn1029 reporting.
  Task      214 on host n2cn1029 reporting.
  Task      215 on host n2cn1029 reporting.
  Task      216 on host n2cn1029 reporting.
  Task      217 on host n2cn1029 reporting.
  Task      218 on host n2cn1029 reporting.
  Task      219 on host n2cn1029 reporting.
  Task      220 on host n2cn1029 reporting.
  Task      221 on host n2cn1029 reporting.
  Task      222 on host n2cn1029 reporting.
  Task      223 on host n2cn1029 reporting.
  Task      224 on host n2cn1029 reporting.
  Task      225 on host n2cn1029 reporting.
  Task      226 on host n2cn1029 reporting.
  Task      227 on host n2cn1029 reporting.
  Task      228 on host n2cn1029 reporting.
  Task      229 on host n2cn1029 reporting.
  Task      230 on host n2cn1029 reporting.
  Task      231 on host n2cn1029 reporting.
  Task      232 on host n2cn1029 reporting.
  Task      233 on host n2cn1029 reporting.
  Task      234 on host n2cn1029 reporting.
  Task      235 on host n2cn1029 reporting.
  Task      236 on host n2cn1029 reporting.
  Task      237 on host n2cn1029 reporting.
  Task      238 on host n2cn1029 reporting.
  Task      239 on host n2cn1029 reporting.
  Task      240 on host n2cn1029 reporting.
  Task      241 on host n2cn1029 reporting.
  Task      242 on host n2cn1029 reporting.
  Task      243 on host n2cn1029 reporting.
  Task      244 on host n2cn1029 reporting.
  Task      245 on host n2cn1029 reporting.
  Task      246 on host n2cn1029 reporting.
  Task      247 on host n2cn1029 reporting.
  Task      248 on host n2cn1029 reporting.
  Task      249 on host n2cn1029 reporting.
  Task      250 on host n2cn1029 reporting.
  Task      251 on host n2cn1029 reporting.
  Task      252 on host n2cn1029 reporting.
  Task      253 on host n2cn1029 reporting.
  Task      254 on host n2cn1029 reporting.
  Task      255 on host n2cn1029 reporting.
  Task      256 on host n2cn1033.ab2021.local reporting.
  Task      257 on host n2cn1033.ab2021.local reporting.
  Task      258 on host n2cn1033.ab2021.local reporting.
  Task      259 on host n2cn1033.ab2021.local reporting.
  Task      260 on host n2cn1033.ab2021.local reporting.
  Task      261 on host n2cn1033.ab2021.local reporting.
  Task      262 on host n2cn1033.ab2021.local reporting.
  Task      263 on host n2cn1033.ab2021.local reporting.
  Task      264 on host n2cn1033.ab2021.local reporting.
  Task      265 on host n2cn1033.ab2021.local reporting.
  Task      266 on host n2cn1033.ab2021.local reporting.
  Task      267 on host n2cn1033.ab2021.local reporting.
  Task      268 on host n2cn1033.ab2021.local reporting.
  Task      269 on host n2cn1033.ab2021.local reporting.
  Task      270 on host n2cn1033.ab2021.local reporting.
  Task      271 on host n2cn1033.ab2021.local reporting.
  Task      272 on host n2cn1033.ab2021.local reporting.
  Task      273 on host n2cn1033.ab2021.local reporting.
  Task      274 on host n2cn1033.ab2021.local reporting.
  Task      275 on host n2cn1033.ab2021.local reporting.
  Task      276 on host n2cn1033.ab2021.local reporting.
  Task      277 on host n2cn1033.ab2021.local reporting.
  Task      278 on host n2cn1033.ab2021.local reporting.
  Task      279 on host n2cn1033.ab2021.local reporting.
  Task      280 on host n2cn1033.ab2021.local reporting.
  Task      281 on host n2cn1033.ab2021.local reporting.
  Task      282 on host n2cn1033.ab2021.local reporting.
  Task      283 on host n2cn1033.ab2021.local reporting.
  Task      284 on host n2cn1033.ab2021.local reporting.
  Task      285 on host n2cn1033.ab2021.local reporting.
  Task      286 on host n2cn1033.ab2021.local reporting.
  Task      287 on host n2cn1033.ab2021.local reporting.
  Task      288 on host n2cn1033.ab2021.local reporting.
  Task      289 on host n2cn1033.ab2021.local reporting.
  Task      290 on host n2cn1033.ab2021.local reporting.
  Task      291 on host n2cn1033.ab2021.local reporting.
  Task      292 on host n2cn1033.ab2021.local reporting.
  Task      293 on host n2cn1033.ab2021.local reporting.
  Task      294 on host n2cn1033.ab2021.local reporting.
  Task      295 on host n2cn1033.ab2021.local reporting.
  Task      296 on host n2cn1033.ab2021.local reporting.
  Task      297 on host n2cn1033.ab2021.local reporting.
  Task      298 on host n2cn1033.ab2021.local reporting.
  Task      299 on host n2cn1033.ab2021.local reporting.
  Task      300 on host n2cn1033.ab2021.local reporting.
  Task      301 on host n2cn1033.ab2021.local reporting.
  Task      302 on host n2cn1033.ab2021.local reporting.
  Task      303 on host n2cn1033.ab2021.local reporting.
  Task      304 on host n2cn1033.ab2021.local reporting.
  Task      305 on host n2cn1033.ab2021.local reporting.
  Task      306 on host n2cn1033.ab2021.local reporting.
  Task      307 on host n2cn1033.ab2021.local reporting.
  Task      308 on host n2cn1033.ab2021.local reporting.
  Task      309 on host n2cn1033.ab2021.local reporting.
  Task      310 on host n2cn1033.ab2021.local reporting.
  Task      311 on host n2cn1033.ab2021.local reporting.
  Task      312 on host n2cn1033.ab2021.local reporting.
  Task      313 on host n2cn1033.ab2021.local reporting.
  Task      314 on host n2cn1033.ab2021.local reporting.
  Task      315 on host n2cn1033.ab2021.local reporting.
  Task      316 on host n2cn1033.ab2021.local reporting.
  Task      317 on host n2cn1033.ab2021.local reporting.
  Task      318 on host n2cn1033.ab2021.local reporting.
  Task      319 on host n2cn1033.ab2021.local reporting.
  Task      320 on host n2cn1033.ab2021.local reporting.
  Task      321 on host n2cn1033.ab2021.local reporting.
  Task      322 on host n2cn1033.ab2021.local reporting.
  Task      323 on host n2cn1033.ab2021.local reporting.
  Task      324 on host n2cn1033.ab2021.local reporting.
  Task      325 on host n2cn1033.ab2021.local reporting.
  Task      326 on host n2cn1033.ab2021.local reporting.
  Task      327 on host n2cn1033.ab2021.local reporting.
  Task      328 on host n2cn1033.ab2021.local reporting.
  Task      329 on host n2cn1033.ab2021.local reporting.
  Task      330 on host n2cn1033.ab2021.local reporting.
  Task      331 on host n2cn1033.ab2021.local reporting.
  Task      332 on host n2cn1033.ab2021.local reporting.
  Task      333 on host n2cn1033.ab2021.local reporting.
  Task      334 on host n2cn1033.ab2021.local reporting.
  Task      335 on host n2cn1033.ab2021.local reporting.
  Task      336 on host n2cn1033.ab2021.local reporting.
  Task      337 on host n2cn1033.ab2021.local reporting.
  Task      338 on host n2cn1033.ab2021.local reporting.
  Task      339 on host n2cn1033.ab2021.local reporting.
  Task      340 on host n2cn1033.ab2021.local reporting.
  Task      341 on host n2cn1033.ab2021.local reporting.
  Task      342 on host n2cn1033.ab2021.local reporting.
  Task      343 on host n2cn1033.ab2021.local reporting.
  Task      344 on host n2cn1033.ab2021.local reporting.
  Task      345 on host n2cn1033.ab2021.local reporting.
  Task      346 on host n2cn1033.ab2021.local reporting.
  Task      347 on host n2cn1033.ab2021.local reporting.
  Task      348 on host n2cn1033.ab2021.local reporting.
  Task      349 on host n2cn1033.ab2021.local reporting.
  Task      350 on host n2cn1033.ab2021.local reporting.
  Task      351 on host n2cn1033.ab2021.local reporting.
  Task      352 on host n2cn1033.ab2021.local reporting.
  Task      353 on host n2cn1033.ab2021.local reporting.
  Task      354 on host n2cn1033.ab2021.local reporting.
  Task      355 on host n2cn1033.ab2021.local reporting.
  Task      356 on host n2cn1033.ab2021.local reporting.
  Task      357 on host n2cn1033.ab2021.local reporting.
  Task      358 on host n2cn1033.ab2021.local reporting.
  Task      359 on host n2cn1033.ab2021.local reporting.
  Task      360 on host n2cn1033.ab2021.local reporting.
  Task      361 on host n2cn1033.ab2021.local reporting.
  Task      362 on host n2cn1033.ab2021.local reporting.
  Task      363 on host n2cn1033.ab2021.local reporting.
  Task      364 on host n2cn1033.ab2021.local reporting.
  Task      365 on host n2cn1033.ab2021.local reporting.
  Task      366 on host n2cn1033.ab2021.local reporting.
  Task      367 on host n2cn1033.ab2021.local reporting.
  Task      368 on host n2cn1033.ab2021.local reporting.
  Task      369 on host n2cn1033.ab2021.local reporting.
  Task      370 on host n2cn1033.ab2021.local reporting.
  Task      371 on host n2cn1033.ab2021.local reporting.
  Task      372 on host n2cn1033.ab2021.local reporting.
  Task      373 on host n2cn1033.ab2021.local reporting.
  Task      374 on host n2cn1033.ab2021.local reporting.
  Task      375 on host n2cn1033.ab2021.local reporting.
  Task      376 on host n2cn1033.ab2021.local reporting.
  Task      377 on host n2cn1033.ab2021.local reporting.
  Task      378 on host n2cn1033.ab2021.local reporting.
  Task      379 on host n2cn1033.ab2021.local reporting.
  Task      380 on host n2cn1033.ab2021.local reporting.
  Task      381 on host n2cn1033.ab2021.local reporting.
  Task      382 on host n2cn1033.ab2021.local reporting.
  Task      383 on host n2cn1033.ab2021.local reporting.
  Task      384 on host n2cn1036.ab2021.local reporting.
  Task      385 on host n2cn1036.ab2021.local reporting.
  Task      386 on host n2cn1036.ab2021.local reporting.
  Task      387 on host n2cn1036.ab2021.local reporting.
  Task      388 on host n2cn1036.ab2021.local reporting.
  Task      389 on host n2cn1036.ab2021.local reporting.
  Task      390 on host n2cn1036.ab2021.local reporting.
  Task      391 on host n2cn1036.ab2021.local reporting.
  Task      392 on host n2cn1036.ab2021.local reporting.
  Task      393 on host n2cn1036.ab2021.local reporting.
  Task      394 on host n2cn1036.ab2021.local reporting.
  Task      395 on host n2cn1036.ab2021.local reporting.
  Task      396 on host n2cn1036.ab2021.local reporting.
  Task      397 on host n2cn1036.ab2021.local reporting.
  Task      398 on host n2cn1036.ab2021.local reporting.
  Task      399 on host n2cn1036.ab2021.local reporting.
  Task      400 on host n2cn1036.ab2021.local reporting.
  Task      401 on host n2cn1036.ab2021.local reporting.
  Task      402 on host n2cn1036.ab2021.local reporting.
  Task      403 on host n2cn1036.ab2021.local reporting.
  Task      404 on host n2cn1036.ab2021.local reporting.
  Task      405 on host n2cn1036.ab2021.local reporting.
  Task      406 on host n2cn1036.ab2021.local reporting.
  Task      407 on host n2cn1036.ab2021.local reporting.
  Task      408 on host n2cn1036.ab2021.local reporting.
  Task      409 on host n2cn1036.ab2021.local reporting.
  Task      410 on host n2cn1036.ab2021.local reporting.
  Task      411 on host n2cn1036.ab2021.local reporting.
  Task      412 on host n2cn1036.ab2021.local reporting.
  Task      413 on host n2cn1036.ab2021.local reporting.
  Task      414 on host n2cn1036.ab2021.local reporting.
  Task      415 on host n2cn1036.ab2021.local reporting.
  Task      416 on host n2cn1036.ab2021.local reporting.
  Task      417 on host n2cn1036.ab2021.local reporting.
  Task      418 on host n2cn1036.ab2021.local reporting.
  Task      419 on host n2cn1036.ab2021.local reporting.
  Task      420 on host n2cn1036.ab2021.local reporting.
  Task      421 on host n2cn1036.ab2021.local reporting.
  Task      422 on host n2cn1036.ab2021.local reporting.
  Task      423 on host n2cn1036.ab2021.local reporting.
  Task      424 on host n2cn1036.ab2021.local reporting.
  Task      425 on host n2cn1036.ab2021.local reporting.
  Task      426 on host n2cn1036.ab2021.local reporting.
  Task      427 on host n2cn1036.ab2021.local reporting.
  Task      428 on host n2cn1036.ab2021.local reporting.
  Task      429 on host n2cn1036.ab2021.local reporting.
  Task      430 on host n2cn1036.ab2021.local reporting.
  Task      431 on host n2cn1036.ab2021.local reporting.
  Task      432 on host n2cn1036.ab2021.local reporting.
  Task      433 on host n2cn1036.ab2021.local reporting.
  Task      434 on host n2cn1036.ab2021.local reporting.
  Task      435 on host n2cn1036.ab2021.local reporting.
  Task      436 on host n2cn1036.ab2021.local reporting.
  Task      437 on host n2cn1036.ab2021.local reporting.
  Task      438 on host n2cn1036.ab2021.local reporting.
  Task      439 on host n2cn1036.ab2021.local reporting.
  Task      440 on host n2cn1036.ab2021.local reporting.
  Task      441 on host n2cn1036.ab2021.local reporting.
  Task      442 on host n2cn1036.ab2021.local reporting.
  Task      443 on host n2cn1036.ab2021.local reporting.
  Task      444 on host n2cn1036.ab2021.local reporting.
  Task      445 on host n2cn1036.ab2021.local reporting.
  Task      446 on host n2cn1036.ab2021.local reporting.
  Task      447 on host n2cn1036.ab2021.local reporting.
  Task      448 on host n2cn1036.ab2021.local reporting.
  Task      449 on host n2cn1036.ab2021.local reporting.
  Task      450 on host n2cn1036.ab2021.local reporting.
  Task      451 on host n2cn1036.ab2021.local reporting.
  Task      452 on host n2cn1036.ab2021.local reporting.
  Task      453 on host n2cn1036.ab2021.local reporting.
  Task      454 on host n2cn1036.ab2021.local reporting.
  Task      455 on host n2cn1036.ab2021.local reporting.
  Task      456 on host n2cn1036.ab2021.local reporting.
  Task      457 on host n2cn1036.ab2021.local reporting.
  Task      458 on host n2cn1036.ab2021.local reporting.
  Task      459 on host n2cn1036.ab2021.local reporting.
  Task      460 on host n2cn1036.ab2021.local reporting.
  Task      461 on host n2cn1036.ab2021.local reporting.
  Task      462 on host n2cn1036.ab2021.local reporting.
  Task      463 on host n2cn1036.ab2021.local reporting.
  Task      464 on host n2cn1036.ab2021.local reporting.
  Task      465 on host n2cn1036.ab2021.local reporting.
  Task      466 on host n2cn1036.ab2021.local reporting.
  Task      467 on host n2cn1036.ab2021.local reporting.
  Task      468 on host n2cn1036.ab2021.local reporting.
  Task      469 on host n2cn1036.ab2021.local reporting.
  Task      470 on host n2cn1036.ab2021.local reporting.
  Task      471 on host n2cn1036.ab2021.local reporting.
  Task      472 on host n2cn1036.ab2021.local reporting.
  Task      473 on host n2cn1036.ab2021.local reporting.
  Task      474 on host n2cn1036.ab2021.local reporting.
  Task      475 on host n2cn1036.ab2021.local reporting.
  Task      476 on host n2cn1036.ab2021.local reporting.
  Task      477 on host n2cn1036.ab2021.local reporting.
  Task      478 on host n2cn1036.ab2021.local reporting.
  Task      479 on host n2cn1036.ab2021.local reporting.
  Task      480 on host n2cn1036.ab2021.local reporting.
  Task      481 on host n2cn1036.ab2021.local reporting.
  Task      482 on host n2cn1036.ab2021.local reporting.
  Task      483 on host n2cn1036.ab2021.local reporting.
  Task      484 on host n2cn1036.ab2021.local reporting.
  Task      485 on host n2cn1036.ab2021.local reporting.
  Task      486 on host n2cn1036.ab2021.local reporting.
  Task      487 on host n2cn1036.ab2021.local reporting.
  Task      488 on host n2cn1036.ab2021.local reporting.
  Task      489 on host n2cn1036.ab2021.local reporting.
  Task      490 on host n2cn1036.ab2021.local reporting.
  Task      491 on host n2cn1036.ab2021.local reporting.
  Task      492 on host n2cn1036.ab2021.local reporting.
  Task      493 on host n2cn1036.ab2021.local reporting.
  Task      494 on host n2cn1036.ab2021.local reporting.
  Task      495 on host n2cn1036.ab2021.local reporting.
  Task      496 on host n2cn1036.ab2021.local reporting.
  Task      497 on host n2cn1036.ab2021.local reporting.
  Task      498 on host n2cn1036.ab2021.local reporting.
  Task      499 on host n2cn1036.ab2021.local reporting.
  Task      500 on host n2cn1036.ab2021.local reporting.
  Task      501 on host n2cn1036.ab2021.local reporting.
  Task      502 on host n2cn1036.ab2021.local reporting.
  Task      503 on host n2cn1036.ab2021.local reporting.
  Task      504 on host n2cn1036.ab2021.local reporting.
  Task      505 on host n2cn1036.ab2021.local reporting.
  Task      506 on host n2cn1036.ab2021.local reporting.
  Task      507 on host n2cn1036.ab2021.local reporting.
  Task      508 on host n2cn1036.ab2021.local reporting.
  Task      509 on host n2cn1036.ab2021.local reporting.
  Task      510 on host n2cn1036.ab2021.local reporting.
  Task      511 on host n2cn1036.ab2021.local reporting.

  Performing system and environment tests:
  | Environment variable OMP_NUM_THREADS correctly set to 1.
  | Checking for ScaLAPACK...
  | Testing pdtran()...
  | All pdtran() tests passed.

  Obtaining array dimensions for all initial allocations:
  
  -----------------------------------------------------------------------
  Parsing control.in (first pass over file, find array dimensions only).
  The contents of control.in will be repeated verbatim below
  unless switched off by setting 'verbatim_writeout .false.' .
  in the first line of control.in .
  -----------------------------------------------------------------------
  
  #control.in header for database project
  #using def2-QVPZ basis for light and heavy elements
  
  #########################################
    xc pbe
    qpe_calc ev_scgw0
    #RI_method v
    #spin               collinear
    #default_initial_moment 0.01
    spin none
  
    iterations_sc_cd 20
    frequency_points 2000
    full_cmplx_sigma .true.
  
    anacon_type  1
    n_anacon_par 128
    contour_def_gw   1 17
    nocc_sc_cd 10
    nvirt_sc_cd 10
    contour_eta 0.004
    state_lower_limit 1
    state_upper_limit 100
    #print_self_energy 6 -20.0 0.0
  
    relativistic none
    override_relativity .true.
    partition_type rho_r2
    density_update_method density_matrix
  
    calc_spectral_func -20.0 0.0 0.001
  
  #########################################
    occupation_type    gaussian 0.000001
    mixer              pulay
      n_max_pulay        10
      charge_mix_param   0.1
    sc_accuracy_rho    1E-7
    sc_accuracy_eev    1E-7
    sc_accuracy_etot   1E-7
    sc_iter_limit      800
  #########################################
    prodbas_threshold  1.e-7
    KS_method          serial
    empty_states       25000
    # Do not check for overlapping xxx matrix
    # Not recommended
    # Necessary for large basis sets
    override_illconditioning .true.
    basis_threshold 1.e-5
  #########################################
  ################################################################################
  #
  #  FHI-aims code project
  # Volker Blum, Fritz Haber Institute Berlin, 2009
  #
  #  Suggested "tight" defaults for Be atom (to be pasted into control.in file)
  #
  ################################################################################
    species        Be
  #     global species definitions
      nucleus             4
      mass                9.012182
  #
      l_hartree           8
  #
      cut_pot             4.0  2.0  1.0
      basis_dep_cutoff    0.d0
  #
      radial_base         31 7.0
      radial_multiplier   4
      angular_grids       specified
        division   0.4283  110
        division   0.4792  194
        division   0.5061  302
        division   0.7227  434
        division   0.8724  590
        #division   0.9555  770
        #division   2.9770  974
        #outer_grid   974
        outer_grid 590
  
  ################################################################################
  #
  #  Definition of "minimal" basis
  #
  ################################################################################
  #     valence basis states
      valence      2  s   2.
  #     ion occupancy
      ion_occ      2  s   1.
  ################################################################################
              # The default minimal basis should not be included
              include_min_basis .false.
              # Use spherical functions?
              pure_gauss .true.
              # Be def2-QZVP
  gaussian 0 8
  29646.7044070              0.37943320869E-04
   4428.7614354              0.29605352634E-03
   1005.4701332              0.15572477356E-02
    284.15339578             0.65323195769E-02
     92.504356461            0.23116861005E-01
     33.311016058            0.69458515249E-01
     12.911553314            0.17014371331
      5.2665497361           0.31682711374
  gaussian 0 2
     22.995386380            0.81791122747E-01
      6.6236354176           0.80000038023
  gaussian 0 1 2.2289595003
  gaussian 0 1 0.95302433451
  gaussian 0 1 0.24651602436
  gaussian 0 1 0.10153895315
  gaussian 0 1 0.41551374604E-01
  gaussian 1 1 6.4000000
  gaussian 1 4
     14.099789445            0.38508871145E-02
      3.1803188482           0.24152380771E-01
      0.90489220496          0.97926925156E-01
      0.30411585508          0.29470380030
  gaussian 1 1 0.11302606657
  gaussian 1 1 0.42831733691E-01
  gaussian 2 1 0.3600000
  gaussian 2 1 0.0900000
  gaussian 3 1 0.2900000
  
  
  
  ################################################################################
  #
  #  FHI-aims code project
  # Volker Blum, Fritz Haber Institute Berlin, 2009
  #
  #  Suggested "tight" defaults for O atom (to be pasted into control.in file)
  #
  ################################################################################
    species        O
  #     global species definitions
      nucleus             8
      mass                15.9994
  #
      l_hartree           8
  #
      cut_pot             4.0  2.0  1.0
      basis_dep_cutoff    0.d0
  #
      radial_base         36 7.0
      radial_multiplier   4
       angular_grids specified
        division   0.4087  110
        division   0.5181  194
        division   0.6184  302
        division   0.7315  434
        division   0.7934  590
        #division   0.9656  770
        #division   1.4041  974
        #outer_grid 974
        outer_grid 590
  
  ################################################################################
  #
  #  Definition of "minimal" basis
  #
  ################################################################################
  #     valence basis states
      valence      2  s   2.
      valence      2  p   4.
  #     ion occupancy
      ion_occ      2  s   1.
      ion_occ      2  p   3.
  
  ################################################################################
  #
  #  Suggested additional basis functions. For production calculations,
  #  uncomment them one after another (the most important basis functions are
  #  listed first).
  #
  #  Basis constructed for dimers: 0.5 A, 0.7 A, 1.0 A, 1.5 A, 2.5 A
  #
  ################################################################################
  # The default minimal basis should not be included
  include_min_basis .false.
  # Use spherical functions?
  pure_gauss .true.
  # O def2-QZVP
  gaussian 0 8
 116506.4690800              0.40383857939E-04
  17504.3497240              0.31255139004E-03
   3993.4513230              0.16341473495E-02
   1133.0063186              0.68283224757E-02
    369.99569594             0.24124410221E-01
    133.62074349             0.72730206154E-01
     52.035643649            0.17934429892
     21.461939313            0.33059588895
  gaussian 0 2
     89.835051252            0.96468652996E-01
     26.428010844            0.94117481120
  gaussian 0 1 9.2822824649
  gaussian 0 1 4.0947728533
  gaussian 0 1 1.3255349078
  gaussian 0 1 0.51877230787
  gaussian 0 1 0.19772676454
  gaussian 1 5
    191.15255810             0.25115697705E-02
     45.233356739            0.20039240864E-01
     14.353465922            0.93609064762E-01
      5.2422371832           0.30618127124
      2.0792418599           0.67810501439
  gaussian 1 1 0.84282371424
  gaussian 1 1 0.33617694891
  gaussian 1 1 0.12863997974
  gaussian 2 1 3.77500000
  gaussian 2 1 1.30000000
  gaussian 2 1 0.44400000
  gaussian 3 1 2.66600000
  gaussian 3 1 0.85900000
  gaussian 4 1 1.84600000
  
  
  -----------------------------------------------------------------------
  Completed first pass over input file control.in .
  -----------------------------------------------------------------------
  
  
  -----------------------------------------------------------------------
  Parsing geometry.in (first pass over file, find array dimensions only).
  The contents of geometry.in will be repeated verbatim below
  unless switched off by setting 'verbatim_writeout .false.' .
  in the first line of geometry.in .
  -----------------------------------------------------------------------
  
  atom 0.0000 0.0000 0.0000 Be
  atom 0.0000 0.0000 1.3308 O
  
  
  -----------------------------------------------------------------------
  Completed first pass over input file geometry.in .
  -----------------------------------------------------------------------
  

  Basic array size parameters:
  | Number of species                 :        2
  | Number of atoms                   :        2
  | Max. basis fn. angular momentum   :        4
  | Max. atomic/ionic basis occupied n:        2
  | Max. number of basis fn. types    :        1
  | Max. radial fns per species/type  :       24
  | Max. logarithmic grid size        :     1301
  | Max. radial integration grid size :      147
  | Max. angular integration grid size:      590
  | Max. angular grid division number :        8
  | Radial grid for Hartree potential :     1301
  | Number of spin channels           :        1

------------------------------------------------------------
          Reading file control.in.
------------------------------------------------------------
  XC: Using PBE gradient-corrected functionals.
  Eigenvalue self-consistent GW0 quasiparticle calculation (without MO update) of excited state will be started after the DFT/HF calculation.
  Spin treatment: No spin polarisation.
  Number of iterations for ev_scGW or ev_scGW0 with CD:    20
  Number of frequency points used for the self-energy calculation:   2000
  Evaluate full complex self energy for CD (including complex integral term).
  Using Pade approximation for analytical continuation.
  Number of fitting parameters for analytical continuation :    128
  Contour deformation in GW for the levels:      1     to      17
  Number of occupied states explicity calculated in ev_scGW or ev_scGW0 with CD:    10 for spin   1
  Number of virtual states explicity calculated in ev_scGW or ev_scGW0 with CD:     10 for spin   1
  Broadening parameter eta:       0.004000
  Lower limit of the eigenstates for the self-energy correction :      1
  Upper limit of the eigenstates for the self-energy correction :    100
  Non-relativistic treatment of kinetic energy.
  override_relativity: Explicitly overriding any built-in relativity checks.
  If you use this flag, you should really know what you are doing.
  Partition function in integrals calculations: rho / r^2
  Spectral function will be calculated from:   -20.000   to        0.000  eV
  Occupation type: Gaussian broadening, width =   0.100000E-05 eV.
  Using pulay charge density mixing.
  Pulay mixing - number of memorized iterations:   10
  Charge density mixing - mixing parameter:     0.1000
  Convergence accuracy of self-consistent charge density:  0.1000E-06
  Convergence accuracy of sum of eigenvalues:  0.1000E-06
  Convergence accuracy of total energy:  0.1000E-06
  Maximum number of s.-c. iterations  :   800
  Threshold for auxiliary basis singularities:  0.1000E-06
  Kohn-Sham eigenvalues and eigenfunctions calculated by LAPACK via ELSI.
  Number of empty states per atom:    25000
  override_illconditioning: Explicitly overriding any built-in checks for an ill-conditioned overlap matrix.
  *** WARNING: If you use this flag, you should really know what you are doing.
  *** DO NOT keep this flag set by default in all your control.in files.
  Threshold for basis singularities:  0.1000E-04

  Reading configuration options for species Be                  .
  | Found nuclear charge :   4.0000
  | Found atomic mass :    9.0121819999999992      amu
  | Found l_max for Hartree potential  :   8
  | Found cutoff potl. onset [A], width [A], scale factor :    4.00000    2.00000    1.00000
  | Threshold for basis-dependent cutoff potential is   0.000000E+00
  | Found data for basic radial integration grid :    31 points, outermost radius =    7.000 A
  | Found multiplier for basic radial grid :   4
  | Found angular grid specification: user-specified.
  | Specified grid contains     6 separate shells.
  | Check grid settings after all constraints further below.
  | Found free-atom valence shell :  2 s   2.000
  | No ionic wave fns used. Skipping ion_occ.
  | Found request to include minimal basis fns. :     F
  | Found request to include pure gaussian fns. :     T
  | Found contracted cartesian Gaussian basis function :  L = 0 ,   8 elementary Gaussians:
  |   alpha = 0.296467E+05 weight = 0.379433E-04
  |   alpha = 0.442876E+04 weight = 0.296054E-03
  |   alpha = 0.100547E+04 weight = 0.155725E-02
  |   alpha = 0.284153E+03 weight = 0.653232E-02
  |   alpha = 0.925044E+02 weight = 0.231169E-01
  |   alpha = 0.333110E+02 weight = 0.694585E-01
  |   alpha = 0.129116E+02 weight = 0.170144E+00
  |   alpha = 0.526655E+01 weight = 0.316827E+00
  |   In terms of angular momentum, this radial function adds: 
  |     1 s-type basis function
  | Found contracted cartesian Gaussian basis function :  L = 0 ,   2 elementary Gaussians:
  |   alpha = 0.229954E+02 weight = 0.817911E-01
  |   alpha = 0.662364E+01 weight = 0.800000E+00
  |   In terms of angular momentum, this radial function adds: 
  |     1 s-type basis function
  | Found primitive cartesian Gaussian basis function :  0 0.222896E+01
  |   In terms of angular momentum, this radial function adds: 
  |     1 s-type basis function
  | Found primitive cartesian Gaussian basis function :  0 0.953024E+00
  |   In terms of angular momentum, this radial function adds: 
  |     1 s-type basis function
  | Found primitive cartesian Gaussian basis function :  0 0.246516E+00
  |   In terms of angular momentum, this radial function adds: 
  |     1 s-type basis function
  | Found primitive cartesian Gaussian basis function :  0 0.101539E+00
  |   In terms of angular momentum, this radial function adds: 
  |     1 s-type basis function
  | Found primitive cartesian Gaussian basis function :  0 0.415514E-01
  |   In terms of angular momentum, this radial function adds: 
  |     1 s-type basis function
  | Found primitive cartesian Gaussian basis function :  1 0.640000E+01
  |   In terms of angular momentum, this radial function adds: 
  |     3 p-type basis functions
  | Found contracted cartesian Gaussian basis function :  L = 1 ,   4 elementary Gaussians:
  |   alpha = 0.140998E+02 weight = 0.385089E-02
  |   alpha = 0.318032E+01 weight = 0.241524E-01
  |   alpha = 0.904892E+00 weight = 0.979269E-01
  |   alpha = 0.304116E+00 weight = 0.294704E+00
  |   In terms of angular momentum, this radial function adds: 
  |     3 p-type basis functions
  | Found primitive cartesian Gaussian basis function :  1 0.113026E+00
  |   In terms of angular momentum, this radial function adds: 
  |     3 p-type basis functions
  | Found primitive cartesian Gaussian basis function :  1 0.428317E-01
  |   In terms of angular momentum, this radial function adds: 
  |     3 p-type basis functions
  | Found primitive cartesian Gaussian basis function :  2 0.360000E+00
  |   In terms of angular momentum, this radial function adds: 
  |     5 d-type basis functions
  | Found primitive cartesian Gaussian basis function :  2 0.900000E-01
  |   In terms of angular momentum, this radial function adds: 
  |     5 d-type basis functions
  | Found primitive cartesian Gaussian basis function :  3 0.290000E+00
  |   In terms of angular momentum, this radial function adds: 
  |     7 f-type basis functions
  Species Be                  : Missing cutoff potential type.
  Defaulting to exp(1/x)/(1-x)^2 type cutoff potential.
  Species Be: No 'logarithmic' tag. Using default grid for free atom:
  | Default logarithmic grid data [bohr] : 0.1000E-03 0.1000E+03 0.1012E+01
  Species Be: On-site basis accuracy parameter (for Gram-Schmidt orthonormalisation) not specified.
  Using default value basis_acc =  0.1000000E-03.
  Species Be                  : Using default innermost maximum threshold i_radial=  2 for radial functions.
  Species Be                  : Default cutoff onset for free atom density etc. is infinite
  since the product basis is used (hybrid functionals, Hartree-Fock, GW etc.).
  Species Be                  : Basic radial grid will be enhanced according to radial_multiplier =   4, to contain   127 grid points.

  Reading configuration options for species O                   .
  | Found nuclear charge :   8.0000
  | Found atomic mass :    15.999400000000000      amu
  | Found l_max for Hartree potential  :   8
  | Found cutoff potl. onset [A], width [A], scale factor :    4.00000    2.00000    1.00000
  | Threshold for basis-dependent cutoff potential is   0.000000E+00
  | Found data for basic radial integration grid :    36 points, outermost radius =    7.000 A
  | Found multiplier for basic radial grid :   4
  | Found angular grid specification: user-specified.
  | Specified grid contains     6 separate shells.
  | Check grid settings after all constraints further below.
  | Found free-atom valence shell :  2 s   2.000
  | Found free-atom valence shell :  2 p   4.000
  | No ionic wave fns used. Skipping ion_occ.
  | No ionic wave fns used. Skipping ion_occ.
  | Found request to include minimal basis fns. :     F
  | Found request to include pure gaussian fns. :     T
  | Found contracted cartesian Gaussian basis function :  L = 0 ,   8 elementary Gaussians:
  |   alpha = 0.116506E+06 weight = 0.403839E-04
  |   alpha = 0.175043E+05 weight = 0.312551E-03
  |   alpha = 0.399345E+04 weight = 0.163415E-02
  |   alpha = 0.113301E+04 weight = 0.682832E-02
  |   alpha = 0.369996E+03 weight = 0.241244E-01
  |   alpha = 0.133621E+03 weight = 0.727302E-01
  |   alpha = 0.520356E+02 weight = 0.179344E+00
  |   alpha = 0.214619E+02 weight = 0.330596E+00
  |   In terms of angular momentum, this radial function adds: 
  |     1 s-type basis function
  | Found contracted cartesian Gaussian basis function :  L = 0 ,   2 elementary Gaussians:
  |   alpha = 0.898351E+02 weight = 0.964687E-01
  |   alpha = 0.264280E+02 weight = 0.941175E+00
  |   In terms of angular momentum, this radial function adds: 
  |     1 s-type basis function
  | Found primitive cartesian Gaussian basis function :  0 0.928228E+01
  |   In terms of angular momentum, this radial function adds: 
  |     1 s-type basis function
  | Found primitive cartesian Gaussian basis function :  0 0.409477E+01
  |   In terms of angular momentum, this radial function adds: 
  |     1 s-type basis function
  | Found primitive cartesian Gaussian basis function :  0 0.132553E+01
  |   In terms of angular momentum, this radial function adds: 
  |     1 s-type basis function
  | Found primitive cartesian Gaussian basis function :  0 0.518772E+00
  |   In terms of angular momentum, this radial function adds: 
  |     1 s-type basis function
  | Found primitive cartesian Gaussian basis function :  0 0.197727E+00
  |   In terms of angular momentum, this radial function adds: 
  |     1 s-type basis function
  | Found contracted cartesian Gaussian basis function :  L = 1 ,   5 elementary Gaussians:
  |   alpha = 0.191153E+03 weight = 0.251157E-02
  |   alpha = 0.452334E+02 weight = 0.200392E-01
  |   alpha = 0.143535E+02 weight = 0.936091E-01
  |   alpha = 0.524224E+01 weight = 0.306181E+00
  |   alpha = 0.207924E+01 weight = 0.678105E+00
  |   In terms of angular momentum, this radial function adds: 
  |     3 p-type basis functions
  | Found primitive cartesian Gaussian basis function :  1 0.842824E+00
  |   In terms of angular momentum, this radial function adds: 
  |     3 p-type basis functions
  | Found primitive cartesian Gaussian basis function :  1 0.336177E+00
  |   In terms of angular momentum, this radial function adds: 
  |     3 p-type basis functions
  | Found primitive cartesian Gaussian basis function :  1 0.128640E+00
  |   In terms of angular momentum, this radial function adds: 
  |     3 p-type basis functions
  | Found primitive cartesian Gaussian basis function :  2 0.377500E+01
  |   In terms of angular momentum, this radial function adds: 
  |     5 d-type basis functions
  | Found primitive cartesian Gaussian basis function :  2 0.130000E+01
  |   In terms of angular momentum, this radial function adds: 
  |     5 d-type basis functions
  | Found primitive cartesian Gaussian basis function :  2 0.444000E+00
  |   In terms of angular momentum, this radial function adds: 
  |     5 d-type basis functions
  | Found primitive cartesian Gaussian basis function :  3 0.266600E+01
  |   In terms of angular momentum, this radial function adds: 
  |     7 f-type basis functions
  | Found primitive cartesian Gaussian basis function :  3 0.859000E+00
  |   In terms of angular momentum, this radial function adds: 
  |     7 f-type basis functions
  | Found primitive cartesian Gaussian basis function :  4 0.184600E+01
  |   In terms of angular momentum, this radial function adds: 
  |     9 g-type basis functions
  Species O                   : Missing cutoff potential type.
  Defaulting to exp(1/x)/(1-x)^2 type cutoff potential.
  Species O : No 'logarithmic' tag. Using default grid for free atom:
  | Default logarithmic grid data [bohr] : 0.1000E-03 0.1000E+03 0.1012E+01
  Species O : On-site basis accuracy parameter (for Gram-Schmidt orthonormalisation) not specified.
  Using default value basis_acc =  0.1000000E-03.
  Species O                   : Using default innermost maximum threshold i_radial=  2 for radial functions.
  Species O                   : Default cutoff onset for free atom density etc. is infinite
  since the product basis is used (hybrid functionals, Hartree-Fock, GW etc.).
  Species O                   : Basic radial grid will be enhanced according to radial_multiplier =   4, to contain   147 grid points.

  Finished reading input file 'control.in'.

------------------------------------------------------------


------------------------------------------------------------
          Reading geometry description geometry.in.
------------------------------------------------------------
  | The smallest distance between any two atoms is         1.33080000 AA.
  | The first atom of this pair is atom number                      1 .
  | The second atom of this pair is atom number                     2 .
  Input structure read successfully.
  The structure contains        2 atoms,  and a total of         12.000 electrons.

  Input geometry:
  | No unit cell requested.
  | Atomic structure:
  |       Atom                x [A]            y [A]            z [A]
  |    1: Species Be            0.00000000        0.00000000        0.00000000
  |    2: Species O             0.00000000        0.00000000        1.33080000


  Finished reading input file 'geometry.in'.



  Consistency checks for stacksize environment parameter are next.

  | Maximum stacksize for task 0: unlimited
  | Maximum stacksize for task 1: unlimited
  | Maximum stacksize for task 2: unlimited
  | Maximum stacksize for task 3: unlimited
  | Maximum stacksize for task 4: unlimited
  | Maximum stacksize for task 5: unlimited
  | Maximum stacksize for task 6: unlimited
  | Maximum stacksize for task 7: unlimited
  | Maximum stacksize for task 8: unlimited
  | Maximum stacksize for task 9: unlimited
  | Maximum stacksize for task 10: unlimited
  | Maximum stacksize for task 11: unlimited
  | Maximum stacksize for task 12: unlimited
  | Maximum stacksize for task 13: unlimited
  | Maximum stacksize for task 14: unlimited
  | Maximum stacksize for task 15: unlimited
  | Maximum stacksize for task 16: unlimited
  | Maximum stacksize for task 17: unlimited
  | Maximum stacksize for task 18: unlimited
  | Maximum stacksize for task 19: unlimited
  | Maximum stacksize for task 20: unlimited
  | Maximum stacksize for task 21: unlimited
  | Maximum stacksize for task 22: unlimited
  | Maximum stacksize for task 23: unlimited
  | Maximum stacksize for task 24: unlimited
  | Maximum stacksize for task 25: unlimited
  | Maximum stacksize for task 26: unlimited
  | Maximum stacksize for task 27: unlimited
  | Maximum stacksize for task 28: unlimited
  | Maximum stacksize for task 29: unlimited
  | Maximum stacksize for task 30: unlimited
  | Maximum stacksize for task 31: unlimited
  | Maximum stacksize for task 32: unlimited
  | Maximum stacksize for task 33: unlimited
  | Maximum stacksize for task 34: unlimited
  | Maximum stacksize for task 35: unlimited
  | Maximum stacksize for task 36: unlimited
  | Maximum stacksize for task 37: unlimited
  | Maximum stacksize for task 38: unlimited
  | Maximum stacksize for task 39: unlimited
  | Maximum stacksize for task 40: unlimited
  | Maximum stacksize for task 41: unlimited
  | Maximum stacksize for task 42: unlimited
  | Maximum stacksize for task 43: unlimited
  | Maximum stacksize for task 44: unlimited
  | Maximum stacksize for task 45: unlimited
  | Maximum stacksize for task 46: unlimited
  | Maximum stacksize for task 47: unlimited
  | Maximum stacksize for task 48: unlimited
  | Maximum stacksize for task 49: unlimited
  | Maximum stacksize for task 50: unlimited
  | Maximum stacksize for task 51: unlimited
  | Maximum stacksize for task 52: unlimited
  | Maximum stacksize for task 53: unlimited
  | Maximum stacksize for task 54: unlimited
  | Maximum stacksize for task 55: unlimited
  | Maximum stacksize for task 56: unlimited
  | Maximum stacksize for task 57: unlimited
  | Maximum stacksize for task 58: unlimited
  | Maximum stacksize for task 59: unlimited
  | Maximum stacksize for task 60: unlimited
  | Maximum stacksize for task 61: unlimited
  | Maximum stacksize for task 62: unlimited
  | Maximum stacksize for task 63: unlimited
  | Maximum stacksize for task 64: unlimited
  | Maximum stacksize for task 65: unlimited
  | Maximum stacksize for task 66: unlimited
  | Maximum stacksize for task 67: unlimited
  | Maximum stacksize for task 68: unlimited
  | Maximum stacksize for task 69: unlimited
  | Maximum stacksize for task 70: unlimited
  | Maximum stacksize for task 71: unlimited
  | Maximum stacksize for task 72: unlimited
  | Maximum stacksize for task 73: unlimited
  | Maximum stacksize for task 74: unlimited
  | Maximum stacksize for task 75: unlimited
  | Maximum stacksize for task 76: unlimited
  | Maximum stacksize for task 77: unlimited
  | Maximum stacksize for task 78: unlimited
  | Maximum stacksize for task 79: unlimited
  | Maximum stacksize for task 80: unlimited
  | Maximum stacksize for task 81: unlimited
  | Maximum stacksize for task 82: unlimited
  | Maximum stacksize for task 83: unlimited
  | Maximum stacksize for task 84: unlimited
  | Maximum stacksize for task 85: unlimited
  | Maximum stacksize for task 86: unlimited
  | Maximum stacksize for task 87: unlimited
  | Maximum stacksize for task 88: unlimited
  | Maximum stacksize for task 89: unlimited
  | Maximum stacksize for task 90: unlimited
  | Maximum stacksize for task 91: unlimited
  | Maximum stacksize for task 92: unlimited
  | Maximum stacksize for task 93: unlimited
  | Maximum stacksize for task 94: unlimited
  | Maximum stacksize for task 95: unlimited
  | Maximum stacksize for task 96: unlimited
  | Maximum stacksize for task 97: unlimited
  | Maximum stacksize for task 98: unlimited
  | Maximum stacksize for task 99: unlimited
  | Maximum stacksize for task 100: unlimited
  | Maximum stacksize for task 101: unlimited
  | Maximum stacksize for task 102: unlimited
  | Maximum stacksize for task 103: unlimited
  | Maximum stacksize for task 104: unlimited
  | Maximum stacksize for task 105: unlimited
  | Maximum stacksize for task 106: unlimited
  | Maximum stacksize for task 107: unlimited
  | Maximum stacksize for task 108: unlimited
  | Maximum stacksize for task 109: unlimited
  | Maximum stacksize for task 110: unlimited
  | Maximum stacksize for task 111: unlimited
  | Maximum stacksize for task 112: unlimited
  | Maximum stacksize for task 113: unlimited
  | Maximum stacksize for task 114: unlimited
  | Maximum stacksize for task 115: unlimited
  | Maximum stacksize for task 116: unlimited
  | Maximum stacksize for task 117: unlimited
  | Maximum stacksize for task 118: unlimited
  | Maximum stacksize for task 119: unlimited
  | Maximum stacksize for task 120: unlimited
  | Maximum stacksize for task 121: unlimited
  | Maximum stacksize for task 122: unlimited
  | Maximum stacksize for task 123: unlimited
  | Maximum stacksize for task 124: unlimited
  | Maximum stacksize for task 125: unlimited
  | Maximum stacksize for task 126: unlimited
  | Maximum stacksize for task 127: unlimited
  | Maximum stacksize for task 128: unlimited
  | Maximum stacksize for task 129: unlimited
  | Maximum stacksize for task 130: unlimited
  | Maximum stacksize for task 131: unlimited
  | Maximum stacksize for task 132: unlimited
  | Maximum stacksize for task 133: unlimited
  | Maximum stacksize for task 134: unlimited
  | Maximum stacksize for task 135: unlimited
  | Maximum stacksize for task 136: unlimited
  | Maximum stacksize for task 137: unlimited
  | Maximum stacksize for task 138: unlimited
  | Maximum stacksize for task 139: unlimited
  | Maximum stacksize for task 140: unlimited
  | Maximum stacksize for task 141: unlimited
  | Maximum stacksize for task 142: unlimited
  | Maximum stacksize for task 143: unlimited
  | Maximum stacksize for task 144: unlimited
  | Maximum stacksize for task 145: unlimited
  | Maximum stacksize for task 146: unlimited
  | Maximum stacksize for task 147: unlimited
  | Maximum stacksize for task 148: unlimited
  | Maximum stacksize for task 149: unlimited
  | Maximum stacksize for task 150: unlimited
  | Maximum stacksize for task 151: unlimited
  | Maximum stacksize for task 152: unlimited
  | Maximum stacksize for task 153: unlimited
  | Maximum stacksize for task 154: unlimited
  | Maximum stacksize for task 155: unlimited
  | Maximum stacksize for task 156: unlimited
  | Maximum stacksize for task 157: unlimited
  | Maximum stacksize for task 158: unlimited
  | Maximum stacksize for task 159: unlimited
  | Maximum stacksize for task 160: unlimited
  | Maximum stacksize for task 161: unlimited
  | Maximum stacksize for task 162: unlimited
  | Maximum stacksize for task 163: unlimited
  | Maximum stacksize for task 164: unlimited
  | Maximum stacksize for task 165: unlimited
  | Maximum stacksize for task 166: unlimited
  | Maximum stacksize for task 167: unlimited
  | Maximum stacksize for task 168: unlimited
  | Maximum stacksize for task 169: unlimited
  | Maximum stacksize for task 170: unlimited
  | Maximum stacksize for task 171: unlimited
  | Maximum stacksize for task 172: unlimited
  | Maximum stacksize for task 173: unlimited
  | Maximum stacksize for task 174: unlimited
  | Maximum stacksize for task 175: unlimited
  | Maximum stacksize for task 176: unlimited
  | Maximum stacksize for task 177: unlimited
  | Maximum stacksize for task 178: unlimited
  | Maximum stacksize for task 179: unlimited
  | Maximum stacksize for task 180: unlimited
  | Maximum stacksize for task 181: unlimited
  | Maximum stacksize for task 182: unlimited
  | Maximum stacksize for task 183: unlimited
  | Maximum stacksize for task 184: unlimited
  | Maximum stacksize for task 185: unlimited
  | Maximum stacksize for task 186: unlimited
  | Maximum stacksize for task 187: unlimited
  | Maximum stacksize for task 188: unlimited
  | Maximum stacksize for task 189: unlimited
  | Maximum stacksize for task 190: unlimited
  | Maximum stacksize for task 191: unlimited
  | Maximum stacksize for task 192: unlimited
  | Maximum stacksize for task 193: unlimited
  | Maximum stacksize for task 194: unlimited
  | Maximum stacksize for task 195: unlimited
  | Maximum stacksize for task 196: unlimited
  | Maximum stacksize for task 197: unlimited
  | Maximum stacksize for task 198: unlimited
  | Maximum stacksize for task 199: unlimited
  | Maximum stacksize for task 200: unlimited
  | Maximum stacksize for task 201: unlimited
  | Maximum stacksize for task 202: unlimited
  | Maximum stacksize for task 203: unlimited
  | Maximum stacksize for task 204: unlimited
  | Maximum stacksize for task 205: unlimited
  | Maximum stacksize for task 206: unlimited
  | Maximum stacksize for task 207: unlimited
  | Maximum stacksize for task 208: unlimited
  | Maximum stacksize for task 209: unlimited
  | Maximum stacksize for task 210: unlimited
  | Maximum stacksize for task 211: unlimited
  | Maximum stacksize for task 212: unlimited
  | Maximum stacksize for task 213: unlimited
  | Maximum stacksize for task 214: unlimited
  | Maximum stacksize for task 215: unlimited
  | Maximum stacksize for task 216: unlimited
  | Maximum stacksize for task 217: unlimited
  | Maximum stacksize for task 218: unlimited
  | Maximum stacksize for task 219: unlimited
  | Maximum stacksize for task 220: unlimited
  | Maximum stacksize for task 221: unlimited
  | Maximum stacksize for task 222: unlimited
  | Maximum stacksize for task 223: unlimited
  | Maximum stacksize for task 224: unlimited
  | Maximum stacksize for task 225: unlimited
  | Maximum stacksize for task 226: unlimited
  | Maximum stacksize for task 227: unlimited
  | Maximum stacksize for task 228: unlimited
  | Maximum stacksize for task 229: unlimited
  | Maximum stacksize for task 230: unlimited
  | Maximum stacksize for task 231: unlimited
  | Maximum stacksize for task 232: unlimited
  | Maximum stacksize for task 233: unlimited
  | Maximum stacksize for task 234: unlimited
  | Maximum stacksize for task 235: unlimited
  | Maximum stacksize for task 236: unlimited
  | Maximum stacksize for task 237: unlimited
  | Maximum stacksize for task 238: unlimited
  | Maximum stacksize for task 239: unlimited
  | Maximum stacksize for task 240: unlimited
  | Maximum stacksize for task 241: unlimited
  | Maximum stacksize for task 242: unlimited
  | Maximum stacksize for task 243: unlimited
  | Maximum stacksize for task 244: unlimited
  | Maximum stacksize for task 245: unlimited
  | Maximum stacksize for task 246: unlimited
  | Maximum stacksize for task 247: unlimited
  | Maximum stacksize for task 248: unlimited
  | Maximum stacksize for task 249: unlimited
  | Maximum stacksize for task 250: unlimited
  | Maximum stacksize for task 251: unlimited
  | Maximum stacksize for task 252: unlimited
  | Maximum stacksize for task 253: unlimited
  | Maximum stacksize for task 254: unlimited
  | Maximum stacksize for task 255: unlimited
  | Maximum stacksize for task 256: unlimited
  | Maximum stacksize for task 257: unlimited
  | Maximum stacksize for task 258: unlimited
  | Maximum stacksize for task 259: unlimited
  | Maximum stacksize for task 260: unlimited
  | Maximum stacksize for task 261: unlimited
  | Maximum stacksize for task 262: unlimited
  | Maximum stacksize for task 263: unlimited
  | Maximum stacksize for task 264: unlimited
  | Maximum stacksize for task 265: unlimited
  | Maximum stacksize for task 266: unlimited
  | Maximum stacksize for task 267: unlimited
  | Maximum stacksize for task 268: unlimited
  | Maximum stacksize for task 269: unlimited
  | Maximum stacksize for task 270: unlimited
  | Maximum stacksize for task 271: unlimited
  | Maximum stacksize for task 272: unlimited
  | Maximum stacksize for task 273: unlimited
  | Maximum stacksize for task 274: unlimited
  | Maximum stacksize for task 275: unlimited
  | Maximum stacksize for task 276: unlimited
  | Maximum stacksize for task 277: unlimited
  | Maximum stacksize for task 278: unlimited
  | Maximum stacksize for task 279: unlimited
  | Maximum stacksize for task 280: unlimited
  | Maximum stacksize for task 281: unlimited
  | Maximum stacksize for task 282: unlimited
  | Maximum stacksize for task 283: unlimited
  | Maximum stacksize for task 284: unlimited
  | Maximum stacksize for task 285: unlimited
  | Maximum stacksize for task 286: unlimited
  | Maximum stacksize for task 287: unlimited
  | Maximum stacksize for task 288: unlimited
  | Maximum stacksize for task 289: unlimited
  | Maximum stacksize for task 290: unlimited
  | Maximum stacksize for task 291: unlimited
  | Maximum stacksize for task 292: unlimited
  | Maximum stacksize for task 293: unlimited
  | Maximum stacksize for task 294: unlimited
  | Maximum stacksize for task 295: unlimited
  | Maximum stacksize for task 296: unlimited
  | Maximum stacksize for task 297: unlimited
  | Maximum stacksize for task 298: unlimited
  | Maximum stacksize for task 299: unlimited
  | Maximum stacksize for task 300: unlimited
  | Maximum stacksize for task 301: unlimited
  | Maximum stacksize for task 302: unlimited
  | Maximum stacksize for task 303: unlimited
  | Maximum stacksize for task 304: unlimited
  | Maximum stacksize for task 305: unlimited
  | Maximum stacksize for task 306: unlimited
  | Maximum stacksize for task 307: unlimited
  | Maximum stacksize for task 308: unlimited
  | Maximum stacksize for task 309: unlimited
  | Maximum stacksize for task 310: unlimited
  | Maximum stacksize for task 311: unlimited
  | Maximum stacksize for task 312: unlimited
  | Maximum stacksize for task 313: unlimited
  | Maximum stacksize for task 314: unlimited
  | Maximum stacksize for task 315: unlimited
  | Maximum stacksize for task 316: unlimited
  | Maximum stacksize for task 317: unlimited
  | Maximum stacksize for task 318: unlimited
  | Maximum stacksize for task 319: unlimited
  | Maximum stacksize for task 320: unlimited
  | Maximum stacksize for task 321: unlimited
  | Maximum stacksize for task 322: unlimited
  | Maximum stacksize for task 323: unlimited
  | Maximum stacksize for task 324: unlimited
  | Maximum stacksize for task 325: unlimited
  | Maximum stacksize for task 326: unlimited
  | Maximum stacksize for task 327: unlimited
  | Maximum stacksize for task 328: unlimited
  | Maximum stacksize for task 329: unlimited
  | Maximum stacksize for task 330: unlimited
  | Maximum stacksize for task 331: unlimited
  | Maximum stacksize for task 332: unlimited
  | Maximum stacksize for task 333: unlimited
  | Maximum stacksize for task 334: unlimited
  | Maximum stacksize for task 335: unlimited
  | Maximum stacksize for task 336: unlimited
  | Maximum stacksize for task 337: unlimited
  | Maximum stacksize for task 338: unlimited
  | Maximum stacksize for task 339: unlimited
  | Maximum stacksize for task 340: unlimited
  | Maximum stacksize for task 341: unlimited
  | Maximum stacksize for task 342: unlimited
  | Maximum stacksize for task 343: unlimited
  | Maximum stacksize for task 344: unlimited
  | Maximum stacksize for task 345: unlimited
  | Maximum stacksize for task 346: unlimited
  | Maximum stacksize for task 347: unlimited
  | Maximum stacksize for task 348: unlimited
  | Maximum stacksize for task 349: unlimited
  | Maximum stacksize for task 350: unlimited
  | Maximum stacksize for task 351: unlimited
  | Maximum stacksize for task 352: unlimited
  | Maximum stacksize for task 353: unlimited
  | Maximum stacksize for task 354: unlimited
  | Maximum stacksize for task 355: unlimited
  | Maximum stacksize for task 356: unlimited
  | Maximum stacksize for task 357: unlimited
  | Maximum stacksize for task 358: unlimited
  | Maximum stacksize for task 359: unlimited
  | Maximum stacksize for task 360: unlimited
  | Maximum stacksize for task 361: unlimited
  | Maximum stacksize for task 362: unlimited
  | Maximum stacksize for task 363: unlimited
  | Maximum stacksize for task 364: unlimited
  | Maximum stacksize for task 365: unlimited
  | Maximum stacksize for task 366: unlimited
  | Maximum stacksize for task 367: unlimited
  | Maximum stacksize for task 368: unlimited
  | Maximum stacksize for task 369: unlimited
  | Maximum stacksize for task 370: unlimited
  | Maximum stacksize for task 371: unlimited
  | Maximum stacksize for task 372: unlimited
  | Maximum stacksize for task 373: unlimited
  | Maximum stacksize for task 374: unlimited
  | Maximum stacksize for task 375: unlimited
  | Maximum stacksize for task 376: unlimited
  | Maximum stacksize for task 377: unlimited
  | Maximum stacksize for task 378: unlimited
  | Maximum stacksize for task 379: unlimited
  | Maximum stacksize for task 380: unlimited
  | Maximum stacksize for task 381: unlimited
  | Maximum stacksize for task 382: unlimited
  | Maximum stacksize for task 383: unlimited
  | Maximum stacksize for task 384: unlimited
  | Maximum stacksize for task 385: unlimited
  | Maximum stacksize for task 386: unlimited
  | Maximum stacksize for task 387: unlimited
  | Maximum stacksize for task 388: unlimited
  | Maximum stacksize for task 389: unlimited
  | Maximum stacksize for task 390: unlimited
  | Maximum stacksize for task 391: unlimited
  | Maximum stacksize for task 392: unlimited
  | Maximum stacksize for task 393: unlimited
  | Maximum stacksize for task 394: unlimited
  | Maximum stacksize for task 395: unlimited
  | Maximum stacksize for task 396: unlimited
  | Maximum stacksize for task 397: unlimited
  | Maximum stacksize for task 398: unlimited
  | Maximum stacksize for task 399: unlimited
  | Maximum stacksize for task 400: unlimited
  | Maximum stacksize for task 401: unlimited
  | Maximum stacksize for task 402: unlimited
  | Maximum stacksize for task 403: unlimited
  | Maximum stacksize for task 404: unlimited
  | Maximum stacksize for task 405: unlimited
  | Maximum stacksize for task 406: unlimited
  | Maximum stacksize for task 407: unlimited
  | Maximum stacksize for task 408: unlimited
  | Maximum stacksize for task 409: unlimited
  | Maximum stacksize for task 410: unlimited
  | Maximum stacksize for task 411: unlimited
  | Maximum stacksize for task 412: unlimited
  | Maximum stacksize for task 413: unlimited
  | Maximum stacksize for task 414: unlimited
  | Maximum stacksize for task 415: unlimited
  | Maximum stacksize for task 416: unlimited
  | Maximum stacksize for task 417: unlimited
  | Maximum stacksize for task 418: unlimited
  | Maximum stacksize for task 419: unlimited
  | Maximum stacksize for task 420: unlimited
  | Maximum stacksize for task 421: unlimited
  | Maximum stacksize for task 422: unlimited
  | Maximum stacksize for task 423: unlimited
  | Maximum stacksize for task 424: unlimited
  | Maximum stacksize for task 425: unlimited
  | Maximum stacksize for task 426: unlimited
  | Maximum stacksize for task 427: unlimited
  | Maximum stacksize for task 428: unlimited
  | Maximum stacksize for task 429: unlimited
  | Maximum stacksize for task 430: unlimited
  | Maximum stacksize for task 431: unlimited
  | Maximum stacksize for task 432: unlimited
  | Maximum stacksize for task 433: unlimited
  | Maximum stacksize for task 434: unlimited
  | Maximum stacksize for task 435: unlimited
  | Maximum stacksize for task 436: unlimited
  | Maximum stacksize for task 437: unlimited
  | Maximum stacksize for task 438: unlimited
  | Maximum stacksize for task 439: unlimited
  | Maximum stacksize for task 440: unlimited
  | Maximum stacksize for task 441: unlimited
  | Maximum stacksize for task 442: unlimited
  | Maximum stacksize for task 443: unlimited
  | Maximum stacksize for task 444: unlimited
  | Maximum stacksize for task 445: unlimited
  | Maximum stacksize for task 446: unlimited
  | Maximum stacksize for task 447: unlimited
  | Maximum stacksize for task 448: unlimited
  | Maximum stacksize for task 449: unlimited
  | Maximum stacksize for task 450: unlimited
  | Maximum stacksize for task 451: unlimited
  | Maximum stacksize for task 452: unlimited
  | Maximum stacksize for task 453: unlimited
  | Maximum stacksize for task 454: unlimited
  | Maximum stacksize for task 455: unlimited
  | Maximum stacksize for task 456: unlimited
  | Maximum stacksize for task 457: unlimited
  | Maximum stacksize for task 458: unlimited
  | Maximum stacksize for task 459: unlimited
  | Maximum stacksize for task 460: unlimited
  | Maximum stacksize for task 461: unlimited
  | Maximum stacksize for task 462: unlimited
  | Maximum stacksize for task 463: unlimited
  | Maximum stacksize for task 464: unlimited
  | Maximum stacksize for task 465: unlimited
  | Maximum stacksize for task 466: unlimited
  | Maximum stacksize for task 467: unlimited
  | Maximum stacksize for task 468: unlimited
  | Maximum stacksize for task 469: unlimited
  | Maximum stacksize for task 470: unlimited
  | Maximum stacksize for task 471: unlimited
  | Maximum stacksize for task 472: unlimited
  | Maximum stacksize for task 473: unlimited
  | Maximum stacksize for task 474: unlimited
  | Maximum stacksize for task 475: unlimited
  | Maximum stacksize for task 476: unlimited
  | Maximum stacksize for task 477: unlimited
  | Maximum stacksize for task 478: unlimited
  | Maximum stacksize for task 479: unlimited
  | Maximum stacksize for task 480: unlimited
  | Maximum stacksize for task 481: unlimited
  | Maximum stacksize for task 482: unlimited
  | Maximum stacksize for task 483: unlimited
  | Maximum stacksize for task 484: unlimited
  | Maximum stacksize for task 485: unlimited
  | Maximum stacksize for task 486: unlimited
  | Maximum stacksize for task 487: unlimited
  | Maximum stacksize for task 488: unlimited
  | Maximum stacksize for task 489: unlimited
  | Maximum stacksize for task 490: unlimited
  | Maximum stacksize for task 491: unlimited
  | Maximum stacksize for task 492: unlimited
  | Maximum stacksize for task 493: unlimited
  | Maximum stacksize for task 494: unlimited
  | Maximum stacksize for task 495: unlimited
  | Maximum stacksize for task 496: unlimited
  | Maximum stacksize for task 497: unlimited
  | Maximum stacksize for task 498: unlimited
  | Maximum stacksize for task 499: unlimited
  | Maximum stacksize for task 500: unlimited
  | Maximum stacksize for task 501: unlimited
  | Maximum stacksize for task 502: unlimited
  | Maximum stacksize for task 503: unlimited
  | Maximum stacksize for task 504: unlimited
  | Maximum stacksize for task 505: unlimited
  | Maximum stacksize for task 506: unlimited
  | Maximum stacksize for task 507: unlimited
  | Maximum stacksize for task 508: unlimited
  | Maximum stacksize for task 509: unlimited
  | Maximum stacksize for task 510: unlimited
  | Maximum stacksize for task 511: unlimited
  | Current stacksize for task 0: unlimited
  | Current stacksize for task 1: unlimited
  | Current stacksize for task 2: unlimited
  | Current stacksize for task 3: unlimited
  | Current stacksize for task 4: unlimited
  | Current stacksize for task 5: unlimited
  | Current stacksize for task 6: unlimited
  | Current stacksize for task 7: unlimited
  | Current stacksize for task 8: unlimited
  | Current stacksize for task 9: unlimited
  | Current stacksize for task 10: unlimited
  | Current stacksize for task 11: unlimited
  | Current stacksize for task 12: unlimited
  | Current stacksize for task 13: unlimited
  | Current stacksize for task 14: unlimited
  | Current stacksize for task 15: unlimited
  | Current stacksize for task 16: unlimited
  | Current stacksize for task 17: unlimited
  | Current stacksize for task 18: unlimited
  | Current stacksize for task 19: unlimited
  | Current stacksize for task 20: unlimited
  | Current stacksize for task 21: unlimited
  | Current stacksize for task 22: unlimited
  | Current stacksize for task 23: unlimited
  | Current stacksize for task 24: unlimited
  | Current stacksize for task 25: unlimited
  | Current stacksize for task 26: unlimited
  | Current stacksize for task 27: unlimited
  | Current stacksize for task 28: unlimited
  | Current stacksize for task 29: unlimited
  | Current stacksize for task 30: unlimited
  | Current stacksize for task 31: unlimited
  | Current stacksize for task 32: unlimited
  | Current stacksize for task 33: unlimited
  | Current stacksize for task 34: unlimited
  | Current stacksize for task 35: unlimited
  | Current stacksize for task 36: unlimited
  | Current stacksize for task 37: unlimited
  | Current stacksize for task 38: unlimited
  | Current stacksize for task 39: unlimited
  | Current stacksize for task 40: unlimited
  | Current stacksize for task 41: unlimited
  | Current stacksize for task 42: unlimited
  | Current stacksize for task 43: unlimited
  | Current stacksize for task 44: unlimited
  | Current stacksize for task 45: unlimited
  | Current stacksize for task 46: unlimited
  | Current stacksize for task 47: unlimited
  | Current stacksize for task 48: unlimited
  | Current stacksize for task 49: unlimited
  | Current stacksize for task 50: unlimited
  | Current stacksize for task 51: unlimited
  | Current stacksize for task 52: unlimited
  | Current stacksize for task 53: unlimited
  | Current stacksize for task 54: unlimited
  | Current stacksize for task 55: unlimited
  | Current stacksize for task 56: unlimited
  | Current stacksize for task 57: unlimited
  | Current stacksize for task 58: unlimited
  | Current stacksize for task 59: unlimited
  | Current stacksize for task 60: unlimited
  | Current stacksize for task 61: unlimited
  | Current stacksize for task 62: unlimited
  | Current stacksize for task 63: unlimited
  | Current stacksize for task 64: unlimited
  | Current stacksize for task 65: unlimited
  | Current stacksize for task 66: unlimited
  | Current stacksize for task 67: unlimited
  | Current stacksize for task 68: unlimited
  | Current stacksize for task 69: unlimited
  | Current stacksize for task 70: unlimited
  | Current stacksize for task 71: unlimited
  | Current stacksize for task 72: unlimited
  | Current stacksize for task 73: unlimited
[...]
----------------------------------------------------------------------------------------

   DFT/Hartree-Fock HOMO level (eV):    -6.1315   -6.1315

   Quasiparticle HOMO level (eV):      -10.1413  -10.1413
----------------------------------------------------------------------------------------

 ************************************************************
  ev-scGW0 Iteration:     8
 ************************************************************

  Self-consistent quasi particle energy calculation with contour deformation starts...

 ------------------------------------------------------------
  Start contour deformation for level:      3    
 ------------------------------------------------------------
  Step:    1
  Step:    2
  Step:    3
  Step:    4
  Scissor-shift the rest of the virtuals by:            0.0000 eV

----------------------------------------------------------------------------------------
    GW quasi-particle energy levels

               Start contour deformation at level:      1
               End contour deformation at level:       17

               e_qp = e_gs + e_x^ex - e_xc^gs + e_c^nloc

  state     occ_num        e_gs        e_x^ex        e_xc^gs        e_c^nloc        e_qp
----------------------------------------------------------------------------------------
----------------------------------------------------------------------------------------
       1    2.0000     -508.3824     -132.5814      -83.7328       22.9677     -534.2633
       2    2.0000     -105.5324      -61.9409      -39.6997        5.1430     -122.6306
       3    2.0000      -20.9194      -33.3377      -21.9148        6.1299      -26.2123
       4    2.0000       -6.8649      -24.9329      -18.7575        2.2103      -10.8300
       5    2.0000       -6.1315      -22.0960      -16.8716        1.2126      -10.1433
       6    2.0000       -6.1315      -22.0960      -16.8716        1.2145      -10.1413
       7    0.0000       -4.7948       -2.6347       -6.4324       -1.0533       -2.0504
       8    0.0000       -0.5506       -3.1833       -6.3812       -0.7123        1.9350
       9    0.0000       -0.5506       -3.1833       -6.3812       -0.7120        1.9353
      10    0.0000        0.9975       -0.6973       -2.5994       -0.3966        2.5030
      11    0.0000        1.3249       -0.4737       -2.6841       -0.5532        2.9820
      12    0.0000        2.7090       -1.0380       -3.8570       -0.5282        4.9999
      13    0.0000        2.7090       -1.0380       -3.8570       -0.5282        4.9999
      14    0.0000        4.4364       -0.4974       -3.2601       -0.5064        6.6927
      15    0.0000        4.4364       -0.4974       -3.2601       -0.5064        6.6927
      16    0.0000        4.8498       -1.0532       -3.6583       -0.4951        6.9598
      17    0.0000        5.6262       -1.6049       -4.6875       -0.9264        7.7825
      18    0.0000        5.6262       -1.6049       -4.6875       -0.5247        7.8298
      19    0.0000        7.5729       -1.8993       -5.1944       -0.9735        9.7765
      20    0.0000       10.9081       -1.4376       -5.0837       -1.1519       13.1116
      21    0.0000       11.2216       -1.7770       -5.6324       -1.2178       13.4251
      22    0.0000       11.2216       -1.7770       -5.6324       -1.2998       13.4251
      23    0.0000       13.1119       -1.3245       -5.6197       -1.5176       15.3154
      24    0.0000       14.6775       -1.6961       -7.1621       -1.6929       16.8810
      25    0.0000       14.6775       -1.6961       -7.1621       -1.5740       16.8810
      26    0.0000       18.1183       -4.3943      -11.1757       -2.5830       20.3219
      27    0.0000       23.2882       -2.1053       -8.2994       -2.4061       25.4918
      28    0.0000       23.2882       -2.1053       -8.2994       -2.3799       25.4918
      29    0.0000       23.3594       -1.5795       -6.8887       -1.7747       25.5629
      30    0.0000       23.3594       -1.5795       -6.8887       -1.7660       25.5629
      31    0.0000       24.6127       -1.0874       -6.3866       -1.7121       26.8162
      32    0.0000       24.6127       -1.0874       -6.3866       -1.8332       26.8163
      33    0.0000       25.7958       -2.7106       -8.2549       -2.0285       27.9994
      34    0.0000       26.3550       -0.5521       -5.8254       -1.5852       28.5586
      35    0.0000       26.3550       -0.5521       -5.8254       -1.4973       28.5586
      36    0.0000       29.4257       -1.6537       -6.7342       -1.3938       31.6293
      37    0.0000       31.6300       -2.1266       -8.1569       -1.5364       33.8336
      38    0.0000       31.6300       -2.1266       -8.1569       -1.3441       33.8336
      39    0.0000       35.9600       -3.6540      -10.9613       -3.1049       38.1635
      40    0.0000       37.5172       -2.1989       -9.2250       -1.6854       39.7208
      41    0.0000       37.5172       -2.1989       -9.2250       -1.6939       39.7208
      42    0.0000       39.6884       -3.9805      -12.5781       -4.4178       41.8920
      43    0.0000       39.6884       -3.9805      -12.5781       -4.3874       41.8920
      44    0.0000       44.6624       -4.2338      -13.4975       -3.1428       46.8659
      45    0.0000       50.0454       -2.1293      -10.0477       -1.6158       52.2490
      46    0.0000       50.0454       -2.1293      -10.0477       -1.6523       52.2490
      47    0.0000       60.7904       -3.1366      -12.4367       -2.0413       62.9940
      48    0.0000       71.8440       -4.6465      -14.6394       -2.2320       74.0476
      49    0.0000       85.1809       -2.5301      -13.5812       -1.8057       87.3845
      50    0.0000       85.1809       -2.5301      -13.5812       -1.8537       87.3845
      51    0.0000       89.3806       -3.0035      -14.4558       -2.3445       91.5842
      52    0.0000       89.3806       -3.0035      -14.4558       -2.3845       91.5842
      53    0.0000       91.9967       -6.0923      -18.2847       -2.9001       94.2002
      54    0.0000       92.6204       -3.9589      -16.1159       -3.1556       94.8239
      55    0.0000       92.6204       -3.9589      -16.1159       -3.1897       94.8239
      56    0.0000      105.5361       -4.7821      -18.1140       -5.3023      107.7396
      57    0.0000      105.5361       -4.7821      -18.1140       -5.3031      107.7397
      58    0.0000      107.4381       -5.5955      -19.1597       -4.2083      109.6417
      59    0.0000      114.1054       -4.2682      -17.5939       -5.0948      116.3089
      60    0.0000      114.1054       -4.2682      -17.5939       -4.3550      116.3089
      61    0.0000      124.2638       -4.1770      -17.8991       -3.4149      126.4673
      62    0.0000      136.0704       -7.7216      -25.2150       -6.9365      138.2740
      63    0.0000      136.0704       -7.7216      -25.2150       -8.5098      138.2740
      64    0.0000      146.4709       -7.1913      -24.5325      -10.2475      148.6744
      65    0.0000      238.6805       -2.5993      -19.4040       -2.8083      240.8841
      66    0.0000      238.6805       -2.5993      -19.4040       -2.7106      240.8841
      67    0.0000      239.0676       -2.4657      -19.1418       -2.1734      241.2712
      68    0.0000      239.0676       -2.4657      -19.1418       -2.6043      241.2712
      69    0.0000      239.3242       -2.3979      -18.9815       -2.4995      241.5277
      70    0.0000      239.3242       -2.3979      -18.9815       -2.5928      241.5277
      71    0.0000      239.6742       -2.3073      -18.7625       -2.3204      241.8777
      72    0.0000      239.6742       -2.3073      -18.7625       -2.2689      241.8778
      73    0.0000      243.3047       -2.6567      -19.6212       -2.7714      245.5083
      74    0.0000      282.3009       -9.1160      -31.8605       -4.5009      284.5045
      75    0.0000      282.3009       -9.1160      -31.8605       -4.3177      284.5045
      76    0.0000      295.4472       -3.4202      -23.0334       -5.6506      297.6507
      77    0.0000      295.4472       -3.4202      -23.0334       -6.2649      297.6507
      78    0.0000      298.4253       -3.4781      -23.1975       -6.7418      300.6289
      79    0.0000      298.4254       -3.4781      -23.1975       -6.8196      300.6289
      80    0.0000      305.8631       -4.5656      -24.8972       -5.8355      308.0666
      81    0.0000      305.9573       -4.4351      -24.8491       -5.9894      308.1608
      82    0.0000      305.9573       -4.4351      -24.8491       -6.1801      308.1608
      83    0.0000      307.5744       -8.2448      -29.6090       -2.9563      309.7780
      84    0.0000      324.2532       -4.2966      -25.4801       -8.5948      326.4567
      85    0.0000      324.2549       -4.2965      -25.4802       -8.5463      326.4584
      86    0.0000      330.9128       -4.3519      -25.5454       -7.7784      333.1163
      87    0.0000      330.9128       -4.3519      -25.5454       -7.7923      333.1163
      88    0.0000      333.3251       -9.7959      -32.5689       -3.0564      335.5287
      89    0.0000      334.3979       -4.2586      -25.4381       -7.9053      336.6014
      90    0.0000      363.3470       -9.6732      -32.2571       -5.2222      365.5505
      91    0.0000     1282.4019      -18.2638      -62.4112       -7.6080     1284.6055
      92    0.0000     1728.2432       -9.6354      -62.0489      -10.3469     1730.4468
      93    0.0000     6846.6582      -20.7959     -126.4129       -6.0813     6848.8617
----------------------------------------------------------------------------------------

   DFT/Hartree-Fock HOMO level (eV):    -6.1315   -6.1315

   Quasiparticle HOMO level (eV):      -10.1413  -10.1413
----------------------------------------------------------------------------------------

 ************************************************************
  ev-scGW0 converged
 ************************************************************
  
  Start calculating the spectral function

------------------------------------------------------------------------------------------------------

          | Total time for transforming the 3-center integrals :        0.087 s
          | Total time for calculating the exchange-correlation
                                  energy matrix elements   :        0.003 s
          | Total time for calculating polarisability     
                        for imaginary frequencies          :       27.441 s
          | Total time for calculating self energy 
                        on imaginary frequency axis        :       80.714 s
          | Total time for calculating the quasiparticle 
                  energies with analytic continuation      :        0.013 s
          | Total time for calculating the quasiparticle 
                  energies with contour deformation        :        0.771 s

------------------------------------------------------------------------------
  Final output of selected total energy values:

  The following output summarizes some interesting total energy values
  at the end of a run (AFTER all relaxation, molecular dynamics, etc.).

  | Total energy of the DFT / Hartree-Fock s.c.f. calculation      :          -2444.570373153 eV
  | Final zero-broadening corrected energy (caution - metals only) :          -2444.570373153 eV
  | For reference only, the value of 1 Hartree used in FHI-aims is :             27.211384500 eV

  Before relying on these values, please be sure to understand exactly which
  total energy value is referred to by a given number. Different objects may
  all carry the same name 'total energy'. Definitions:

  Total energy of the DFT / Hartree-Fock s.c.f. calculation:
  | Note that this energy does not include ANY quantities calculated after the
  | s.c.f. cycle, in particular not ANY RPA, MP2, etc. many-body perturbation terms.

  Final zero-broadening corrected energy:
  | For metallic systems only, a broadening of the occupation numbers at the Fermi
  | level can be extrapolated back to zero broadening by an electron-gas inspired
  | formula. For all systems that are not real metals, this value can be
  | meaningless and should be avoided.

------------------------------------------------------------------------------
  Methods described in the following list of references were used in this FHI-aims run.
  If you publish the results, please make sure to cite these reference if they apply.
  FHI-aims is an academic code, and for our developers (often, Ph.D. students
  and postdocs), scientific credit in the community is essential.
  Thank you for helping us!

  For any use of FHI-aims, please cite:

    Volker Blum, Ralf Gehrke, Felix Hanke, Paula Havu, Ville Havu,
    Xinguo Ren, Karsten Reuter, and Matthias Scheffler
    'Ab initio molecular simulations with numeric atom-centered orbitals'
    Computer Physics Communications 180, 2175-2196 (2009)
    http://doi.org/10.1016/j.cpc.2009.06.022


  For Hartree-Fock, hybrid functionals, or many-body perturbation theory used in your run, please cite:

    Xinguo Ren, Patrick Rinke, Volker Blum, Juergen Wieferink, Alex Tkatchenko,
    Andrea Sanfilippo, Karsten Reuter, and Matthias Scheffler,
    'Resolution-of-identity approach to Hartree-Fock, hybrid density functionals,
    RPA, MP2, and GW with numeric atom-centered orbital basis functions'
    New Journal of Physics 14, 053020 (2012).
    http://doi.org/10.1088/1367-2630/14/5/053020


  The ELSI infrastructure was used in your run to solve the Kohn-Sham electronic structure.
  Please check out http://elsi-interchange.org to learn more.
  If scalability is important for your project, please acknowledge ELSI by citing:

    V. W-z. Yu, F. Corsetti, A. Garcia, W. P. Huhn, M. Jacquelin, W. Jia,
    B. Lange, L. Lin, J. Lu, W. Mi, A. Seifitokaldani, A. Vazquez-Mayagoitia,
    C. Yang, H. Yang, and V. Blum
    'ELSI: A unified software interface for Kohn-Sham electronic structure solvers'
    Computer Physics Communications 222, 267-285 (2018).
    http://doi.org/10.1016/j.cpc.2017.09.007


  For the real-space grid partitioning and parallelization used in this calculation, please cite:

    Ville Havu, Volker Blum, Paula Havu, and Matthias Scheffler,
    'Efficient O(N) integration for all-electron electronic structure calculation'
    'using numerically tabulated basis functions'
    Journal of Computational Physics 228, 8367-8379 (2009).
    http://doi.org/10.1016/j.jcp.2009.08.008

  Of course, there are many other important community references, e.g., those cited in the
  above references. Our list is limited to references that describe implementations in the
  FHI-aims code. The reason is purely practical (length of this list) - please credit others as well.

 * Warning - angular integration grids had to be adjusted for use with RI_method 'V'.
 * Background: You are using an electronic structure method that requires RI_method 'V'
 * for the resolution of identity of the Coulomb operator. (See Ren et al.,
 * New J. Phys 2012 for details.) This method requires three-center integrations
 * to be carried out on FHI-aims' normal angular and radial integration grids.
 * (See FHI-aims CPC Blum et al. 2009, p. 2183 for grid details and references.)
 * One of the angular grids specified in your control.in file was not large
 * enough for the maximal angular momenta of orbital and product basis functions
 * for its species.
 * This can lead to atomic total energy errors which cancel in energy differences.
 * Effective Sep 22, 2014, we have changed the default behavior of the code to
 * simply 'upgrade' the angular grids internally to a safe setting in this case.
 * Please be sure to NOT mix total energies from before and after the change.

------------------------------------------------------------
          Leaving FHI-aims.
          Date     :  20240515, Time     :  052902.662

          Computational steps:
          | Number of self-consistency cycles          :           21
          | Number of SCF (re)initializations          :            1

          Detailed time accounting                     :  max(cpu_time)    wall_clock(cpu1)
          | Total time                                  :     1210.688 s        1216.761 s
          | Preparation time                            :        0.157 s           0.186 s
          | Boundary condition initalization            :        0.001 s           0.000 s
          | Grid partitioning                           :        0.088 s           0.081 s
          | Preloading free-atom quantities on grid     :        0.016 s           0.032 s
          | Free-atom superposition energy              :        0.001 s           0.001 s
          | Total time for integrations                 :        0.139 s           0.138 s
          | Product basis setup: Total time             :        0.000 s           0.000 s
          | Product basis: | 3-center integrations     :(       0.931 s)  (       0.935 s)
          | Product basis: | 2-center integrations     :(       0.084 s)  (       0.085 s)
          | Product basis: | 2-center linear algebra   :(       0.056 s)  (       0.057 s)
          | Product basis: | 3-center x 2-center       :(       0.030 s)  (       0.030 s)
          | Transforming ovlp_3fn to ovlp_3KS           :        0.087 s           0.064 s
          | Screened Coulomb matrix W_mn(iw)            :      107.480 s         108.040 s
          | Polarisability matrix Pi_PQ(iw)             :       27.441 s          27.441 s
          | Total time for GW calculation               :     1199.019 s        1204.310 s
          | GW self-energy (analytic cont.)             :      261.800 s         263.037 s
          | Contour def: | Solving qp equations         :        0.771 s           0.774 s
          | Contour def: | GW self-energy               :      934.474 s         907.643 s
          | Contour def: | Scr Coulomb matrix W_mn(w)   :      906.391 s         878.519 s
          | Contour def: | CD-WAC W_mn(w) and Pade      :        0.000 s           0.000 s
          | Contour def: | Scr aux Coulomb mat W_PQ(w)  :      863.283 s         835.357 s
          | Contour def: | Polarisability Pi_PQ(w)      :      448.582 s         432.047 s
          | Contour def: | Spectral function CD         :      495.271 s         497.398 s
          | Total time for solution of K.-S. equations  :        1.086 s           1.091 s
          | Total time for density update               :        0.177 s           0.178 s
          | Total time for mixing                       :        7.862 s           7.474 s
          | Total time for Hartree multipole update     :        0.092 s           0.091 s
          | Total time for Hartree multipole sum        :        0.198 s           0.236 s
          | Total time for total energy evaluation      :        0.021 s           0.019 s

          Partial memory accounting:
          | Residual value for overall tracked memory usage across tasks:     0.000000 MB (should be 0.000000 MB)
          | Peak values for overall tracked memory usage:
          |   Minimum:        0.484 MB (on task 159 after allocating gradient_basis_wave)
          |   Maximum:        1.021 MB (on task  11 after allocating gradient_basis_wave)
          |   Average:        0.941 MB
          | Largest tracked array allocation:
          |   Minimum:        0.152 MB (gradient_basis_wave on task 103)
          |   Maximum:        0.392 MB (gradient_basis_wave on task  11)
          |   Average:        0.357 MB
          Note:  These values currently only include a subset of arrays which are explicitly tracked.
          The "true" memory usage will be greater.

          Have a nice day.
------------------------------------------------------------
