------------------------------------------------------------
          Invoking FHI-aims ...

          When using FHI-aims, please cite the following reference:

            Volker Blum, Ralf Gehrke, Felix Hanke, Paula Havu,
            Ville Havu, Xinguo Ren, Karsten Reuter, and Matthias Scheffler,
            'Ab Initio Molecular Simulations with Numeric Atom-Centered Orbitals',
            Computer Physics Communications 180, 2175-2196 (2009)

          In addition, many other developments in FHI-aims are likely important for
          your particular application. A partial list of references is given at the end of
          this file. Thank you for giving credit to the authors of these developments.

          For any questions about FHI-aims, please visit our slack channel at

            https://fhi-aims.slack.com

          and our main development and support site at

            https://aims-git.rz-berlin.mpg.de .

          The latter site, in particular, has a wiki to collect information, as well
          as an issue tracker to log discussions, suggest improvements, and report issues
          or bugs. https://aims-git.rz-berlin.mpg.de is also the main development site
          of the project and all new and updated code versions can be obtained there.
          Please send an email to aims-coordinators@fhi-berlin.mpg.de and we will add
          you to these sites. They are for you and everyone is welcome there.

------------------------------------------------------------



  Date     :  20240515, Time     :  122812.887
  Time zero on CPU 1             :   0.269152700000000E+01  s.
  Internal wall clock time zero  :           485008092.887  s.

  FHI-aims created a unique identifier for this run for later identification
  aims_uuid : B037B8BB-8B8D-462D-A2D1-1E3BE7240FF1

  Build configuration of the current instance of FHI-aims
  -------------------------------------------------------
  FHI-aims version      : 221103.1
  Commit number         : GITDIR-NOTFOUND
  CMake host system     : Linux-4.18.0-372.32.1.el8_6.x86_64
  CMake version         : 3.24.3
  Fortran compiler      : /opt/software/pc2/EB-SW/software/OpenMPI/4.1.4-GCC-12.2.0/bin/mpifort (GNU) version 12.2.0
  Fortran compiler flags: -O3 -ffree-line-length-none -fallow-argument-mismatch -march=znver3 -mprefer-vector-width=256
  C compiler            : /opt/software/pc2/EB-SW/software/GCCcore/12.2.0/bin/gcc (GNU) version 12.2.0
  C compiler flags      : -O3 -DNDEBUG -funroll-loops -march=znver3 -mprefer-vector-width=256
  HIP compiler          :
  HIP compiler flags    :
  HIP GPU arch          :
  Using MPI
  Using ScaLAPACK
  Using LibXC
  Using i-PI
  Using RLSY
  Linking against: /opt/software/pc2/EB-SW/software/ScaLAPACK/2.2.0-gompi-2022b-fb/lib/libscalapack.so
                   /opt/software/pc2/EB-SW/software/OpenBLAS/0.3.21-GCC-12.2.0/lib/libopenblas.so

  Using      128 parallel tasks.
  Task        0 on host n2cn0455.ab2021.local reporting.
  Task        1 on host n2cn0455.ab2021.local reporting.
  Task        2 on host n2cn0455.ab2021.local reporting.
  Task        3 on host n2cn0455.ab2021.local reporting.
  Task        4 on host n2cn0455.ab2021.local reporting.
  Task        5 on host n2cn0455.ab2021.local reporting.
  Task        6 on host n2cn0455.ab2021.local reporting.
  Task        7 on host n2cn0455.ab2021.local reporting.
  Task        8 on host n2cn0455.ab2021.local reporting.
  Task        9 on host n2cn0455.ab2021.local reporting.
  Task       10 on host n2cn0455.ab2021.local reporting.
  Task       11 on host n2cn0455.ab2021.local reporting.
  Task       12 on host n2cn0455.ab2021.local reporting.
  Task       13 on host n2cn0455.ab2021.local reporting.
  Task       14 on host n2cn0455.ab2021.local reporting.
  Task       15 on host n2cn0455.ab2021.local reporting.
  Task       16 on host n2cn0455.ab2021.local reporting.
  Task       17 on host n2cn0455.ab2021.local reporting.
  Task       18 on host n2cn0455.ab2021.local reporting.
  Task       19 on host n2cn0455.ab2021.local reporting.
  Task       20 on host n2cn0455.ab2021.local reporting.
  Task       21 on host n2cn0455.ab2021.local reporting.
  Task       22 on host n2cn0455.ab2021.local reporting.
  Task       23 on host n2cn0455.ab2021.local reporting.
  Task       24 on host n2cn0455.ab2021.local reporting.
  Task       25 on host n2cn0455.ab2021.local reporting.
  Task       26 on host n2cn0455.ab2021.local reporting.
  Task       27 on host n2cn0455.ab2021.local reporting.
  Task       28 on host n2cn0455.ab2021.local reporting.
  Task       29 on host n2cn0455.ab2021.local reporting.
  Task       30 on host n2cn0455.ab2021.local reporting.
  Task       31 on host n2cn0455.ab2021.local reporting.
  Task       32 on host n2cn0455.ab2021.local reporting.
  Task       33 on host n2cn0455.ab2021.local reporting.
  Task       34 on host n2cn0455.ab2021.local reporting.
  Task       35 on host n2cn0455.ab2021.local reporting.
  Task       36 on host n2cn0455.ab2021.local reporting.
  Task       37 on host n2cn0455.ab2021.local reporting.
  Task       38 on host n2cn0455.ab2021.local reporting.
  Task       39 on host n2cn0455.ab2021.local reporting.
  Task       40 on host n2cn0455.ab2021.local reporting.
  Task       41 on host n2cn0455.ab2021.local reporting.
  Task       42 on host n2cn0455.ab2021.local reporting.
  Task       43 on host n2cn0455.ab2021.local reporting.
  Task       44 on host n2cn0455.ab2021.local reporting.
  Task       45 on host n2cn0455.ab2021.local reporting.
  Task       46 on host n2cn0455.ab2021.local reporting.
  Task       47 on host n2cn0455.ab2021.local reporting.
  Task       48 on host n2cn0455.ab2021.local reporting.
  Task       49 on host n2cn0455.ab2021.local reporting.
  Task       50 on host n2cn0455.ab2021.local reporting.
  Task       51 on host n2cn0455.ab2021.local reporting.
  Task       52 on host n2cn0455.ab2021.local reporting.
  Task       53 on host n2cn0455.ab2021.local reporting.
  Task       54 on host n2cn0455.ab2021.local reporting.
  Task       55 on host n2cn0455.ab2021.local reporting.
  Task       56 on host n2cn0455.ab2021.local reporting.
  Task       57 on host n2cn0455.ab2021.local reporting.
  Task       58 on host n2cn0455.ab2021.local reporting.
  Task       59 on host n2cn0455.ab2021.local reporting.
  Task       60 on host n2cn0455.ab2021.local reporting.
  Task       61 on host n2cn0455.ab2021.local reporting.
  Task       62 on host n2cn0455.ab2021.local reporting.
  Task       63 on host n2cn0455.ab2021.local reporting.
  Task       64 on host n2cn0455.ab2021.local reporting.
  Task       65 on host n2cn0455.ab2021.local reporting.
  Task       66 on host n2cn0455.ab2021.local reporting.
  Task       67 on host n2cn0455.ab2021.local reporting.
  Task       68 on host n2cn0455.ab2021.local reporting.
  Task       69 on host n2cn0455.ab2021.local reporting.
  Task       70 on host n2cn0455.ab2021.local reporting.
  Task       71 on host n2cn0455.ab2021.local reporting.
  Task       72 on host n2cn0455.ab2021.local reporting.
  Task       73 on host n2cn0455.ab2021.local reporting.
  Task       74 on host n2cn0455.ab2021.local reporting.
  Task       75 on host n2cn0455.ab2021.local reporting.
  Task       76 on host n2cn0455.ab2021.local reporting.
  Task       77 on host n2cn0455.ab2021.local reporting.
  Task       78 on host n2cn0455.ab2021.local reporting.
  Task       79 on host n2cn0455.ab2021.local reporting.
  Task       80 on host n2cn0455.ab2021.local reporting.
  Task       81 on host n2cn0455.ab2021.local reporting.
  Task       82 on host n2cn0455.ab2021.local reporting.
  Task       83 on host n2cn0455.ab2021.local reporting.
  Task       84 on host n2cn0455.ab2021.local reporting.
  Task       85 on host n2cn0455.ab2021.local reporting.
  Task       86 on host n2cn0455.ab2021.local reporting.
  Task       87 on host n2cn0455.ab2021.local reporting.
  Task       88 on host n2cn0455.ab2021.local reporting.
  Task       89 on host n2cn0455.ab2021.local reporting.
  Task       90 on host n2cn0455.ab2021.local reporting.
  Task       91 on host n2cn0455.ab2021.local reporting.
  Task       92 on host n2cn0455.ab2021.local reporting.
  Task       93 on host n2cn0455.ab2021.local reporting.
  Task       94 on host n2cn0455.ab2021.local reporting.
  Task       95 on host n2cn0455.ab2021.local reporting.
  Task       96 on host n2cn0455.ab2021.local reporting.
  Task       97 on host n2cn0455.ab2021.local reporting.
  Task       98 on host n2cn0455.ab2021.local reporting.
  Task       99 on host n2cn0455.ab2021.local reporting.
  Task      100 on host n2cn0455.ab2021.local reporting.
  Task      101 on host n2cn0455.ab2021.local reporting.
  Task      102 on host n2cn0455.ab2021.local reporting.
  Task      103 on host n2cn0455.ab2021.local reporting.
  Task      104 on host n2cn0455.ab2021.local reporting.
  Task      105 on host n2cn0455.ab2021.local reporting.
  Task      106 on host n2cn0455.ab2021.local reporting.
  Task      107 on host n2cn0455.ab2021.local reporting.
  Task      108 on host n2cn0455.ab2021.local reporting.
  Task      109 on host n2cn0455.ab2021.local reporting.
  Task      110 on host n2cn0455.ab2021.local reporting.
  Task      111 on host n2cn0455.ab2021.local reporting.
  Task      112 on host n2cn0455.ab2021.local reporting.
  Task      113 on host n2cn0455.ab2021.local reporting.
  Task      114 on host n2cn0455.ab2021.local reporting.
  Task      115 on host n2cn0455.ab2021.local reporting.
  Task      116 on host n2cn0455.ab2021.local reporting.
  Task      117 on host n2cn0455.ab2021.local reporting.
  Task      118 on host n2cn0455.ab2021.local reporting.
  Task      119 on host n2cn0455.ab2021.local reporting.
  Task      120 on host n2cn0455.ab2021.local reporting.
  Task      121 on host n2cn0455.ab2021.local reporting.
  Task      122 on host n2cn0455.ab2021.local reporting.
  Task      123 on host n2cn0455.ab2021.local reporting.
  Task      124 on host n2cn0455.ab2021.local reporting.
  Task      125 on host n2cn0455.ab2021.local reporting.
  Task      126 on host n2cn0455.ab2021.local reporting.
  Task      127 on host n2cn0455.ab2021.local reporting.

  Performing system and environment tests:
  | Environment variable OMP_NUM_THREADS correctly set to 1.
  | Checking for ScaLAPACK...
  | Testing pdtran()...
  | All pdtran() tests passed.

  Obtaining array dimensions for all initial allocations:
  
  -----------------------------------------------------------------------
  Parsing control.in (first pass over file, find array dimensions only).
  The contents of control.in will be repeated verbatim below
  unless switched off by setting 'verbatim_writeout .false.' .
  in the first line of control.in .
  -----------------------------------------------------------------------
  
  #control.in header for database project
  #using def2-QVPZ basis for light and heavy elements
  
  #########################################
    xc                 pbe
    qpe_calc           gw
    #RI_method v
    #spin               collinear
    #default_initial_moment 0.01
    spin none
  
    anacon_type  1
    n_anacon_par 128
    frequency_points 600
    contour_def_gw   1 17
    contour_eta 0.004
    state_lower_limit 1
    print_self_energy 6 -20.0 0.0
  
    relativistic none
    override_relativity .true.
    partition_type rho_r2
    density_update_method density_matrix
  
    calc_spectral_func -20.0 0.0 0.01
    spectral_func_state 6
  
  #########################################
    occupation_type    gaussian 0.000001
    mixer              pulay
      n_max_pulay        10
      charge_mix_param   0.1
    sc_accuracy_rho    1E-7
    sc_accuracy_eev    1E-7
    sc_accuracy_etot   1E-7
    sc_iter_limit      800
  #########################################
    prodbas_threshold  1.e-7
    KS_method          serial
    empty_states       25000
    # Do not check for overlapping xxx matrix
    # Not recommended
    # Necessary for large basis sets
    override_illconditioning .true.
    basis_threshold 1.e-5
  #########################################
  ################################################################################
  #
  #  FHI-aims code project
  # Volker Blum, Fritz Haber Institute Berlin, 2009
  #
  #  Suggested "tight" defaults for Be atom (to be pasted into control.in file)
  #
  ################################################################################
    species        Be
  #     global species definitions
      nucleus             4
      mass                9.012182
  #
      l_hartree           8
  #
      cut_pot             4.0  2.0  1.0
      basis_dep_cutoff    0.d0
  #
      radial_base         31 7.0
      radial_multiplier   4
      angular_grids       specified
        division   0.4283  110
        division   0.4792  194
        division   0.5061  302
        division   0.7227  434
        division   0.8724  590
        #division   0.9555  770
        #division   2.9770  974
        #outer_grid   974
        outer_grid 590
  
  ################################################################################
  #
  #  Definition of "minimal" basis
  #
  ################################################################################
  #     valence basis states
      valence      2  s   2.
  #     ion occupancy
      ion_occ      2  s   1.
  ################################################################################
              # The default minimal basis should not be included
              include_min_basis .false.
              # Use spherical functions?
              pure_gauss .true.
              # Be def2-QZVP
  gaussian 0 8
  29646.7044070              0.37943320869E-04
   4428.7614354              0.29605352634E-03
   1005.4701332              0.15572477356E-02
    284.15339578             0.65323195769E-02
     92.504356461            0.23116861005E-01
     33.311016058            0.69458515249E-01
     12.911553314            0.17014371331
      5.2665497361           0.31682711374
  gaussian 0 2
     22.995386380            0.81791122747E-01
      6.6236354176           0.80000038023
  gaussian 0 1 2.2289595003
  gaussian 0 1 0.95302433451
  gaussian 0 1 0.24651602436
  gaussian 0 1 0.10153895315
  gaussian 0 1 0.41551374604E-01
  gaussian 1 1 6.4000000
  gaussian 1 4
     14.099789445            0.38508871145E-02
      3.1803188482           0.24152380771E-01
      0.90489220496          0.97926925156E-01
      0.30411585508          0.29470380030
  gaussian 1 1 0.11302606657
  gaussian 1 1 0.42831733691E-01
  gaussian 2 1 0.3600000
  gaussian 2 1 0.0900000
  gaussian 3 1 0.2900000
  
  
  
  ################################################################################
  #
  #  FHI-aims code project
  # Volker Blum, Fritz Haber Institute Berlin, 2009
  #
  #  Suggested "tight" defaults for O atom (to be pasted into control.in file)
  #
  ################################################################################
    species        O
  #     global species definitions
      nucleus             8
      mass                15.9994
  #
      l_hartree           8
  #
      cut_pot             4.0  2.0  1.0
      basis_dep_cutoff    0.d0
  #
      radial_base         36 7.0
      radial_multiplier   4
       angular_grids specified
        division   0.4087  110
        division   0.5181  194
        division   0.6184  302
        division   0.7315  434
        division   0.7934  590
        #division   0.9656  770
        #division   1.4041  974
        #outer_grid 974
        outer_grid 590
  
  ################################################################################
  #
  #  Definition of "minimal" basis
  #
  ################################################################################
  #     valence basis states
      valence      2  s   2.
      valence      2  p   4.
  #     ion occupancy
      ion_occ      2  s   1.
      ion_occ      2  p   3.
  
  ################################################################################
  #
  #  Suggested additional basis functions. For production calculations,
  #  uncomment them one after another (the most important basis functions are
  #  listed first).
  #
  #  Basis constructed for dimers: 0.5 A, 0.7 A, 1.0 A, 1.5 A, 2.5 A
  #
  ################################################################################
  # The default minimal basis should not be included
  include_min_basis .false.
  # Use spherical functions?
  pure_gauss .true.
  # O def2-QZVP
  gaussian 0 8
 116506.4690800              0.40383857939E-04
  17504.3497240              0.31255139004E-03
   3993.4513230              0.16341473495E-02
   1133.0063186              0.68283224757E-02
    369.99569594             0.24124410221E-01
    133.62074349             0.72730206154E-01
     52.035643649            0.17934429892
     21.461939313            0.33059588895
  gaussian 0 2
     89.835051252            0.96468652996E-01
     26.428010844            0.94117481120
  gaussian 0 1 9.2822824649
  gaussian 0 1 4.0947728533
  gaussian 0 1 1.3255349078
  gaussian 0 1 0.51877230787
  gaussian 0 1 0.19772676454
  gaussian 1 5
    191.15255810             0.25115697705E-02
     45.233356739            0.20039240864E-01
     14.353465922            0.93609064762E-01
      5.2422371832           0.30618127124
      2.0792418599           0.67810501439
  gaussian 1 1 0.84282371424
  gaussian 1 1 0.33617694891
  gaussian 1 1 0.12863997974
  gaussian 2 1 3.77500000
  gaussian 2 1 1.30000000
  gaussian 2 1 0.44400000
  gaussian 3 1 2.66600000
  gaussian 3 1 0.85900000
  gaussian 4 1 1.84600000
  
  
  -----------------------------------------------------------------------
  Completed first pass over input file control.in .
  -----------------------------------------------------------------------
  
  
  -----------------------------------------------------------------------
  Parsing geometry.in (first pass over file, find array dimensions only).
  The contents of geometry.in will be repeated verbatim below
  unless switched off by setting 'verbatim_writeout .false.' .
  in the first line of geometry.in .
  -----------------------------------------------------------------------
  
  atom 0.0000 0.0000 0.0000 Be
  atom 0.0000 0.0000 1.3308 O
  
  
  -----------------------------------------------------------------------
  Completed first pass over input file geometry.in .
  -----------------------------------------------------------------------
  

  Basic array size parameters:
  | Number of species                 :        2
  | Number of atoms                   :        2
  | Max. basis fn. angular momentum   :        4
  | Max. atomic/ionic basis occupied n:        2
  | Max. number of basis fn. types    :        1
  | Max. radial fns per species/type  :       24
  | Max. logarithmic grid size        :     1301
  | Max. radial integration grid size :      147
  | Max. angular integration grid size:      590
  | Max. angular grid division number :        8
  | Radial grid for Hartree potential :     1301
  | Number of spin channels           :        1

------------------------------------------------------------
          Reading file control.in.
------------------------------------------------------------
  XC: Using PBE gradient-corrected functionals.
  GW quasiparticle calculation of excited states will be started after the DFT/HF calculation.
  Spin treatment: No spin polarisation.
  Using Pade approximation for analytical continuation.
  Number of fitting parameters for analytical continuation :    128
  Number of frequency points used for the self-energy calculation:    600
  Contour deformation in GW for the levels:      1     to      17
  Broadening parameter eta:       0.004000
  Lower limit of the eigenstates for the self-energy correction :      1
  Non-relativistic treatment of kinetic energy.
  override_relativity: Explicitly overriding any built-in relativity checks.
  If you use this flag, you should really know what you are doing.
  Partition function in integrals calculations: rho / r^2
  Spectral function will be calculated from:   -20.000   to        0.000  eV
  Occupation type: Gaussian broadening, width =   0.100000E-05 eV.
  Using pulay charge density mixing.
  Pulay mixing - number of memorized iterations:   10
  Charge density mixing - mixing parameter:     0.1000
  Convergence accuracy of self-consistent charge density:  0.1000E-06
  Convergence accuracy of sum of eigenvalues:  0.1000E-06
  Convergence accuracy of total energy:  0.1000E-06
  Maximum number of s.-c. iterations  :   800
  Threshold for auxiliary basis singularities:  0.1000E-06
  Kohn-Sham eigenvalues and eigenfunctions calculated by LAPACK via ELSI.
  Number of empty states per atom:    25000
  override_illconditioning: Explicitly overriding any built-in checks for an ill-conditioned overlap matrix.
  *** WARNING: If you use this flag, you should really know what you are doing.
  *** DO NOT keep this flag set by default in all your control.in files.
  Threshold for basis singularities:  0.1000E-04

  Reading configuration options for species Be                  .
  | Found nuclear charge :   4.0000
  | Found atomic mass :    9.0121819999999992      amu
  | Found l_max for Hartree potential  :   8
  | Found cutoff potl. onset [A], width [A], scale factor :    4.00000    2.00000    1.00000
  | Threshold for basis-dependent cutoff potential is   0.000000E+00
  | Found data for basic radial integration grid :    31 points, outermost radius =    7.000 A
  | Found multiplier for basic radial grid :   4
  | Found angular grid specification: user-specified.
  | Specified grid contains     6 separate shells.
  | Check grid settings after all constraints further below.
  | Found free-atom valence shell :  2 s   2.000
  | No ionic wave fns used. Skipping ion_occ.
  | Found request to include minimal basis fns. :     F
  | Found request to include pure gaussian fns. :     T
  | Found contracted cartesian Gaussian basis function :  L = 0 ,   8 elementary Gaussians:
  |   alpha = 0.296467E+05 weight = 0.379433E-04
  |   alpha = 0.442876E+04 weight = 0.296054E-03
  |   alpha = 0.100547E+04 weight = 0.155725E-02
  |   alpha = 0.284153E+03 weight = 0.653232E-02
  |   alpha = 0.925044E+02 weight = 0.231169E-01
  |   alpha = 0.333110E+02 weight = 0.694585E-01
  |   alpha = 0.129116E+02 weight = 0.170144E+00
  |   alpha = 0.526655E+01 weight = 0.316827E+00
  |   In terms of angular momentum, this radial function adds: 
  |     1 s-type basis function
  | Found contracted cartesian Gaussian basis function :  L = 0 ,   2 elementary Gaussians:
  |   alpha = 0.229954E+02 weight = 0.817911E-01
  |   alpha = 0.662364E+01 weight = 0.800000E+00
  |   In terms of angular momentum, this radial function adds: 
  |     1 s-type basis function
  | Found primitive cartesian Gaussian basis function :  0 0.222896E+01
  |   In terms of angular momentum, this radial function adds: 
  |     1 s-type basis function
  | Found primitive cartesian Gaussian basis function :  0 0.953024E+00
  |   In terms of angular momentum, this radial function adds: 
  |     1 s-type basis function
  | Found primitive cartesian Gaussian basis function :  0 0.246516E+00
  |   In terms of angular momentum, this radial function adds: 
  |     1 s-type basis function
  | Found primitive cartesian Gaussian basis function :  0 0.101539E+00
  |   In terms of angular momentum, this radial function adds: 
  |     1 s-type basis function
  | Found primitive cartesian Gaussian basis function :  0 0.415514E-01
  |   In terms of angular momentum, this radial function adds: 
  |     1 s-type basis function
  | Found primitive cartesian Gaussian basis function :  1 0.640000E+01
  |   In terms of angular momentum, this radial function adds: 
  |     3 p-type basis functions
  | Found contracted cartesian Gaussian basis function :  L = 1 ,   4 elementary Gaussians:
  |   alpha = 0.140998E+02 weight = 0.385089E-02
  |   alpha = 0.318032E+01 weight = 0.241524E-01
  |   alpha = 0.904892E+00 weight = 0.979269E-01
  |   alpha = 0.304116E+00 weight = 0.294704E+00
  |   In terms of angular momentum, this radial function adds: 
  |     3 p-type basis functions
  | Found primitive cartesian Gaussian basis function :  1 0.113026E+00
  |   In terms of angular momentum, this radial function adds: 
  |     3 p-type basis functions
  | Found primitive cartesian Gaussian basis function :  1 0.428317E-01
  |   In terms of angular momentum, this radial function adds: 
  |     3 p-type basis functions
  | Found primitive cartesian Gaussian basis function :  2 0.360000E+00
  |   In terms of angular momentum, this radial function adds: 
  |     5 d-type basis functions
  | Found primitive cartesian Gaussian basis function :  2 0.900000E-01
  |   In terms of angular momentum, this radial function adds: 
  |     5 d-type basis functions
  | Found primitive cartesian Gaussian basis function :  3 0.290000E+00
  |   In terms of angular momentum, this radial function adds: 
  |     7 f-type basis functions
  Species Be                  : Missing cutoff potential type.
  Defaulting to exp(1/x)/(1-x)^2 type cutoff potential.
  Species Be: No 'logarithmic' tag. Using default grid for free atom:
  | Default logarithmic grid data [bohr] : 0.1000E-03 0.1000E+03 0.1012E+01
  Species Be: On-site basis accuracy parameter (for Gram-Schmidt orthonormalisation) not specified.
  Using default value basis_acc =  0.1000000E-03.
  Species Be                  : Using default innermost maximum threshold i_radial=  2 for radial functions.
  Species Be                  : Default cutoff onset for free atom density etc. is infinite
  since the product basis is used (hybrid functionals, Hartree-Fock, GW etc.).
  Species Be                  : Basic radial grid will be enhanced according to radial_multiplier =   4, to contain   127 grid points.

  Reading configuration options for species O                   .
  | Found nuclear charge :   8.0000
  | Found atomic mass :    15.999400000000000      amu
  | Found l_max for Hartree potential  :   8
  | Found cutoff potl. onset [A], width [A], scale factor :    4.00000    2.00000    1.00000
  | Threshold for basis-dependent cutoff potential is   0.000000E+00
  | Found data for basic radial integration grid :    36 points, outermost radius =    7.000 A
  | Found multiplier for basic radial grid :   4
  | Found angular grid specification: user-specified.
  | Specified grid contains     6 separate shells.
  | Check grid settings after all constraints further below.
  | Found free-atom valence shell :  2 s   2.000
  | Found free-atom valence shell :  2 p   4.000
  | No ionic wave fns used. Skipping ion_occ.
  | No ionic wave fns used. Skipping ion_occ.
  | Found request to include minimal basis fns. :     F
  | Found request to include pure gaussian fns. :     T
  | Found contracted cartesian Gaussian basis function :  L = 0 ,   8 elementary Gaussians:
  |   alpha = 0.116506E+06 weight = 0.403839E-04
  |   alpha = 0.175043E+05 weight = 0.312551E-03
  |   alpha = 0.399345E+04 weight = 0.163415E-02
  |   alpha = 0.113301E+04 weight = 0.682832E-02
  |   alpha = 0.369996E+03 weight = 0.241244E-01
  |   alpha = 0.133621E+03 weight = 0.727302E-01
  |   alpha = 0.520356E+02 weight = 0.179344E+00
  |   alpha = 0.214619E+02 weight = 0.330596E+00
  |   In terms of angular momentum, this radial function adds: 
  |     1 s-type basis function
  | Found contracted cartesian Gaussian basis function :  L = 0 ,   2 elementary Gaussians:
  |   alpha = 0.898351E+02 weight = 0.964687E-01
  |   alpha = 0.264280E+02 weight = 0.941175E+00
  |   In terms of angular momentum, this radial function adds: 
  |     1 s-type basis function
  | Found primitive cartesian Gaussian basis function :  0 0.928228E+01
  |   In terms of angular momentum, this radial function adds: 
  |     1 s-type basis function
  | Found primitive cartesian Gaussian basis function :  0 0.409477E+01
  |   In terms of angular momentum, this radial function adds: 
  |     1 s-type basis function
  | Found primitive cartesian Gaussian basis function :  0 0.132553E+01
  |   In terms of angular momentum, this radial function adds: 
  |     1 s-type basis function
  | Found primitive cartesian Gaussian basis function :  0 0.518772E+00
  |   In terms of angular momentum, this radial function adds: 
  |     1 s-type basis function
  | Found primitive cartesian Gaussian basis function :  0 0.197727E+00
  |   In terms of angular momentum, this radial function adds: 
  |     1 s-type basis function
  | Found contracted cartesian Gaussian basis function :  L = 1 ,   5 elementary Gaussians:
  |   alpha = 0.191153E+03 weight = 0.251157E-02
  |   alpha = 0.452334E+02 weight = 0.200392E-01
  |   alpha = 0.143535E+02 weight = 0.936091E-01
  |   alpha = 0.524224E+01 weight = 0.306181E+00
  |   alpha = 0.207924E+01 weight = 0.678105E+00
  |   In terms of angular momentum, this radial function adds: 
  |     3 p-type basis functions
  | Found primitive cartesian Gaussian basis function :  1 0.842824E+00
  |   In terms of angular momentum, this radial function adds: 
  |     3 p-type basis functions
  | Found primitive cartesian Gaussian basis function :  1 0.336177E+00
  |   In terms of angular momentum, this radial function adds: 
  |     3 p-type basis functions
  | Found primitive cartesian Gaussian basis function :  1 0.128640E+00
  |   In terms of angular momentum, this radial function adds: 
  |     3 p-type basis functions
  | Found primitive cartesian Gaussian basis function :  2 0.377500E+01
  |   In terms of angular momentum, this radial function adds: 
  |     5 d-type basis functions
  | Found primitive cartesian Gaussian basis function :  2 0.130000E+01
  |   In terms of angular momentum, this radial function adds: 
  |     5 d-type basis functions
  | Found primitive cartesian Gaussian basis function :  2 0.444000E+00
  |   In terms of angular momentum, this radial function adds: 
  |     5 d-type basis functions
  | Found primitive cartesian Gaussian basis function :  3 0.266600E+01
  |   In terms of angular momentum, this radial function adds: 
  |     7 f-type basis functions
  | Found primitive cartesian Gaussian basis function :  3 0.859000E+00
  |   In terms of angular momentum, this radial function adds: 
  |     7 f-type basis functions
  | Found primitive cartesian Gaussian basis function :  4 0.184600E+01
  |   In terms of angular momentum, this radial function adds: 
  |     9 g-type basis functions
  Species O                   : Missing cutoff potential type.
  Defaulting to exp(1/x)/(1-x)^2 type cutoff potential.
  Species O : No 'logarithmic' tag. Using default grid for free atom:
  | Default logarithmic grid data [bohr] : 0.1000E-03 0.1000E+03 0.1012E+01
  Species O : On-site basis accuracy parameter (for Gram-Schmidt orthonormalisation) not specified.
  Using default value basis_acc =  0.1000000E-03.
  Species O                   : Using default innermost maximum threshold i_radial=  2 for radial functions.
  Species O                   : Default cutoff onset for free atom density etc. is infinite
  since the product basis is used (hybrid functionals, Hartree-Fock, GW etc.).
  Species O                   : Basic radial grid will be enhanced according to radial_multiplier =   4, to contain   147 grid points.

  Finished reading input file 'control.in'.

------------------------------------------------------------


------------------------------------------------------------
          Reading geometry description geometry.in.
------------------------------------------------------------
  | The smallest distance between any two atoms is         1.33080000 AA.
  | The first atom of this pair is atom number                      1 .
  | The second atom of this pair is atom number                     2 .
  Input structure read successfully.
  The structure contains        2 atoms,  and a total of         12.000 electrons.

  Input geometry:
  | No unit cell requested.
  | Atomic structure:
  |       Atom                x [A]            y [A]            z [A]
  |    1: Species Be            0.00000000        0.00000000        0.00000000
  |    2: Species O             0.00000000        0.00000000        1.33080000


  Finished reading input file 'geometry.in'.



  Consistency checks for stacksize environment parameter are next.

  | Maximum stacksize for task 0: unlimited
  | Maximum stacksize for task 1: unlimited
  | Maximum stacksize for task 2: unlimited
  | Maximum stacksize for task 3: unlimited
  | Maximum stacksize for task 4: unlimited
  | Maximum stacksize for task 5: unlimited
  | Maximum stacksize for task 6: unlimited
  | Maximum stacksize for task 7: unlimited
  | Maximum stacksize for task 8: unlimited
  | Maximum stacksize for task 9: unlimited
  | Maximum stacksize for task 10: unlimited
  | Maximum stacksize for task 11: unlimited
  | Maximum stacksize for task 12: unlimited
  | Maximum stacksize for task 13: unlimited
  | Maximum stacksize for task 14: unlimited
  | Maximum stacksize for task 15: unlimited
  | Maximum stacksize for task 16: unlimited
  | Maximum stacksize for task 17: unlimited
  | Maximum stacksize for task 18: unlimited
  | Maximum stacksize for task 19: unlimited
  | Maximum stacksize for task 20: unlimited
  | Maximum stacksize for task 21: unlimited
  | Maximum stacksize for task 22: unlimited
  | Maximum stacksize for task 23: unlimited
  | Maximum stacksize for task 24: unlimited
  | Maximum stacksize for task 25: unlimited
  | Maximum stacksize for task 26: unlimited
  | Maximum stacksize for task 27: unlimited
  | Maximum stacksize for task 28: unlimited
  | Maximum stacksize for task 29: unlimited
  | Maximum stacksize for task 30: unlimited
  | Maximum stacksize for task 31: unlimited
  | Maximum stacksize for task 32: unlimited
  | Maximum stacksize for task 33: unlimited
  | Maximum stacksize for task 34: unlimited
  | Maximum stacksize for task 35: unlimited
  | Maximum stacksize for task 36: unlimited
  | Maximum stacksize for task 37: unlimited
  | Maximum stacksize for task 38: unlimited
  | Maximum stacksize for task 39: unlimited
  | Maximum stacksize for task 40: unlimited
  | Maximum stacksize for task 41: unlimited
  | Maximum stacksize for task 42: unlimited
  | Maximum stacksize for task 43: unlimited
  | Maximum stacksize for task 44: unlimited
  | Maximum stacksize for task 45: unlimited
  | Maximum stacksize for task 46: unlimited
  | Maximum stacksize for task 47: unlimited
  | Maximum stacksize for task 48: unlimited
  | Maximum stacksize for task 49: unlimited
  | Maximum stacksize for task 50: unlimited
  | Maximum stacksize for task 51: unlimited
  | Maximum stacksize for task 52: unlimited
  | Maximum stacksize for task 53: unlimited
  | Maximum stacksize for task 54: unlimited
  | Maximum stacksize for task 55: unlimited
  | Maximum stacksize for task 56: unlimited
  | Maximum stacksize for task 57: unlimited
  | Maximum stacksize for task 58: unlimited
  | Maximum stacksize for task 59: unlimited
  | Maximum stacksize for task 60: unlimited
  | Maximum stacksize for task 61: unlimited
  | Maximum stacksize for task 62: unlimited
  | Maximum stacksize for task 63: unlimited
  | Maximum stacksize for task 64: unlimited
  | Maximum stacksize for task 65: unlimited
  | Maximum stacksize for task 66: unlimited
  | Maximum stacksize for task 67: unlimited
  | Maximum stacksize for task 68: unlimited
  | Maximum stacksize for task 69: unlimited
  | Maximum stacksize for task 70: unlimited
  | Maximum stacksize for task 71: unlimited
  | Maximum stacksize for task 72: unlimited
  | Maximum stacksize for task 73: unlimited
  | Maximum stacksize for task 74: unlimited
  | Maximum stacksize for task 75: unlimited
  | Maximum stacksize for task 76: unlimited
  | Maximum stacksize for task 77: unlimited
  | Maximum stacksize for task 78: unlimited
  | Maximum stacksize for task 79: unlimited
  | Maximum stacksize for task 80: unlimited
  | Maximum stacksize for task 81: unlimited
  | Maximum stacksize for task 82: unlimited
  | Maximum stacksize for task 83: unlimited
  | Maximum stacksize for task 84: unlimited
  | Maximum stacksize for task 85: unlimited
  | Maximum stacksize for task 86: unlimited
  | Maximum stacksize for task 87: unlimited
  | Maximum stacksize for task 88: unlimited
  | Maximum stacksize for task 89: unlimited
  | Maximum stacksize for task 90: unlimited
  | Maximum stacksize for task 91: unlimited
  | Maximum stacksize for task 92: unlimited
  | Maximum stacksize for task 93: unlimited
  | Maximum stacksize for task 94: unlimited
  | Maximum stacksize for task 95: unlimited
  | Maximum stacksize for task 96: unlimited
  | Maximum stacksize for task 97: unlimited
  | Maximum stacksize for task 98: unlimited
  | Maximum stacksize for task 99: unlimited
  | Maximum stacksize for task 100: unlimited
  | Maximum stacksize for task 101: unlimited
  | Maximum stacksize for task 102: unlimited
  | Maximum stacksize for task 103: unlimited
  | Maximum stacksize for task 104: unlimited
  | Maximum stacksize for task 105: unlimited
  | Maximum stacksize for task 106: unlimited
  | Maximum stacksize for task 107: unlimited
  | Maximum stacksize for task 108: unlimited
  | Maximum stacksize for task 109: unlimited
  | Maximum stacksize for task 110: unlimited
  | Maximum stacksize for task 111: unlimited
  | Maximum stacksize for task 112: unlimited
  | Maximum stacksize for task 113: unlimited
  | Maximum stacksize for task 114: unlimited
  | Maximum stacksize for task 115: unlimited
  | Maximum stacksize for task 116: unlimited
  | Maximum stacksize for task 117: unlimited
  | Maximum stacksize for task 118: unlimited
  | Maximum stacksize for task 119: unlimited
  | Maximum stacksize for task 120: unlimited
  | Maximum stacksize for task 121: unlimited
  | Maximum stacksize for task 122: unlimited
  | Maximum stacksize for task 123: unlimited
  | Maximum stacksize for task 124: unlimited
  | Maximum stacksize for task 125: unlimited
  | Maximum stacksize for task 126: unlimited
  | Maximum stacksize for task 127: unlimited
  | Current stacksize for task 0: unlimited
  | Current stacksize for task 1: unlimited
  | Current stacksize for task 2: unlimited
  | Current stacksize for task 3: unlimited
  | Current stacksize for task 4: unlimited
  | Current stacksize for task 5: unlimited
  | Current stacksize for task 6: unlimited
  | Current stacksize for task 7: unlimited
  | Current stacksize for task 8: unlimited
  | Current stacksize for task 9: unlimited
  | Current stacksize for task 10: unlimited
  | Current stacksize for task 11: unlimited
  | Current stacksize for task 12: unlimited
  | Current stacksize for task 13: unlimited
  | Current stacksize for task 14: unlimited
  | Current stacksize for task 15: unlimited
  | Current stacksize for task 16: unlimited
  | Current stacksize for task 17: unlimited
  | Current stacksize for task 18: unlimited
  | Current stacksize for task 19: unlimited
  | Current stacksize for task 20: unlimited
  | Current stacksize for task 21: unlimited
  | Current stacksize for task 22: unlimited
  | Current stacksize for task 23: unlimited
  | Current stacksize for task 24: unlimited
  | Current stacksize for task 25: unlimited
  | Current stacksize for task 26: unlimited
  | Current stacksize for task 27: unlimited
  | Current stacksize for task 28: unlimited
  | Current stacksize for task 29: unlimited
  | Current stacksize for task 30: unlimited
  | Current stacksize for task 31: unlimited
  | Current stacksize for task 32: unlimited
  | Current stacksize for task 33: unlimited
  | Current stacksize for task 34: unlimited
  | Current stacksize for task 35: unlimited
  | Current stacksize for task 36: unlimited
  | Current stacksize for task 37: unlimited
  | Current stacksize for task 38: unlimited
  | Current stacksize for task 39: unlimited
  | Current stacksize for task 40: unlimited
  | Current stacksize for task 41: unlimited
  | Current stacksize for task 42: unlimited
  | Current stacksize for task 43: unlimited
  | Current stacksize for task 44: unlimited
  | Current stacksize for task 45: unlimited
  | Current stacksize for task 46: unlimited
  | Current stacksize for task 47: unlimited
  | Current stacksize for task 48: unlimited
  | Current stacksize for task 49: unlimited
  | Current stacksize for task 50: unlimited
  | Current stacksize for task 51: unlimited
  | Current stacksize for task 52: unlimited
  | Current stacksize for task 53: unlimited
  | Current stacksize for task 54: unlimited
  | Current stacksize for task 55: unlimited
  | Current stacksize for task 56: unlimited
  | Current stacksize for task 57: unlimited
  | Current stacksize for task 58: unlimited
  | Current stacksize for task 59: unlimited
  | Current stacksize for task 60: unlimited
  | Current stacksize for task 61: unlimited
  | Current stacksize for task 62: unlimited
  | Current stacksize for task 63: unlimited
  | Current stacksize for task 64: unlimited
  | Current stacksize for task 65: unlimited
  | Current stacksize for task 66: unlimited
  | Current stacksize for task 67: unlimited
  | Current stacksize for task 68: unlimited
  | Current stacksize for task 69: unlimited
  | Current stacksize for task 70: unlimited
  | Current stacksize for task 71: unlimited
  | Current stacksize for task 72: unlimited
  | Current stacksize for task 73: unlimited
  | Current stacksize for task 74: unlimited
  | Current stacksize for task 75: unlimited
  | Current stacksize for task 76: unlimited
  | Current stacksize for task 77: unlimited
  | Current stacksize for task 78: unlimited
  | Current stacksize for task 79: unlimited
  | Current stacksize for task 80: unlimited
  | Current stacksize for task 81: unlimited
  | Current stacksize for task 82: unlimited
  | Current stacksize for task 83: unlimited
  | Current stacksize for task 84: unlimited
  | Current stacksize for task 85: unlimited
  | Current stacksize for task 86: unlimited
  | Current stacksize for task 87: unlimited
  | Current stacksize for task 88: unlimited
  | Current stacksize for task 89: unlimited
  | Current stacksize for task 90: unlimited
  | Current stacksize for task 91: unlimited
  | Current stacksize for task 92: unlimited
  | Current stacksize for task 93: unlimited
  | Current stacksize for task 94: unlimited
  | Current stacksize for task 95: unlimited
  | Current stacksize for task 96: unlimited
  | Current stacksize for task 97: unlimited
  | Current stacksize for task 98: unlimited
  | Current stacksize for task 99: unlimited
  | Current stacksize for task 100: unlimited
  | Current stacksize for task 101: unlimited
  | Current stacksize for task 102: unlimited
  | Current stacksize for task 103: unlimited
  | Current stacksize for task 104: unlimited
  | Current stacksize for task 105: unlimited
  | Current stacksize for task 106: unlimited
  | Current stacksize for task 107: unlimited
  | Current stacksize for task 108: unlimited
  | Current stacksize for task 109: unlimited
  | Current stacksize for task 110: unlimited
  | Current stacksize for task 111: unlimited
  | Current stacksize for task 112: unlimited
  | Current stacksize for task 113: unlimited
  | Current stacksize for task 114: unlimited
  | Current stacksize for task 115: unlimited
  | Current stacksize for task 116: unlimited
  | Current stacksize for task 117: unlimited
  | Current stacksize for task 118: unlimited
  | Current stacksize for task 119: unlimited
  | Current stacksize for task 120: unlimited
  | Current stacksize for task 121: unlimited
  | Current stacksize for task 122: unlimited
  | Current stacksize for task 123: unlimited
  | Current stacksize for task 124: unlimited
  | Current stacksize for task 125: unlimited
  | Current stacksize for task 126: unlimited
  | Current stacksize for task 127: unlimited

  Consistency checks for the contents of control.in are next.

  MPI_IN_PLACE appears to work with this MPI implementation.
  | Keeping use_mpi_in_place .true. (see manual).
  Explicit treatment of the Coulomb operator is needed, but the RI method is not specified.
  Coulomb operator: Defaulting to 'RI-V' resolution of identity - RI_type = V
  Species Be: Using default value for prodbas_acc =   1.000000E-02.
  Species Be: Using default value max_l_prodbas =     5.
  Species O: Using default value for prodbas_acc =   1.000000E-02.
  Species O: Using default value max_l_prodbas =     5.
 * Species O: Specified min. number of angular integration points is   110
 * The angular momenta for this species require   194 for RI_type 'V'. Increasing angular_min to   194.
 * Species O: Grid shell     1 contains only   110 angular integration points.
 * Increasing to angular_min =   194 integration points.
 * This change is related to the three-center integrals used in RI_method 'V'.
  Target number of points in a grid batch is not set. Defaulting to  100
  Method for grid partitioning is not set. Defaulting to parallel hash+maxmin partitioning.
  Batch size limit is not set. Defaulting to    200
  By default, will store active basis functions for each batch.
  If in need of memory, prune_basis_once .false. can be used to disable this option.
  communication_type for Hartree potential was not specified.
  Defaulting to calc_hartree .
  Pulay mixer: Number of initial linear mixing iterations not set.
  Defaulting to    0 iterations.
  Work space size for distributed Hartree potential not set.
  Defaulting to   0.200000E+03 MB.
  Algorithm-dependent basis array size parameters:
  | n_max_pulay                         :       10
  Presetting      1001 iterations before the initial mixing cycle
  is restarted anyway using the sc_init_iter criterion / keyword.
  Presetting a factor      1.000 between actual scf density residual
  and density convergence criterion sc_accuracy_rho below which sc_init_iter
  takes no effect.
  Calculation of forces was not defined in control.in. No forces will be calculated.
  Geometry relaxation not requested: no relaxation will be performed.
  No accuracy limit for integral partition fn. given. Defaulting to  0.1000E-14.
  No threshold value for u(r) in integrations given. Defaulting to  0.1000E-05.
  No accuracy for occupation numbers given. Defaulting to  0.1000E-12.
  No threshold value for occupation numbers given. Defaulting to  0.0000E+00.
  No accuracy for fermi level given. Defaulting to  0.1000E-19.
  Maximum # of iterations to find E_F not set. Defaulting to  200.
  Will not use alltoall communication since running on < 1024 CPUs.
  Partitioning for Hartree potential was not defined. Using partition_type for integrals.
  | Reporting present value of keyword multip_moments_threshold  :       0.10000000E-09
  | This value may affect high angular momentum components of the Hartree potential in periodic systems.
  * Doing correlated calculations, so all empty single-particle states will be included.
  No q(lm)/r^(l+1) cutoff set for long-range Hartree potential.
  | Using default value of  0.100000E-09 .
  | Verify using the multipole_threshold keyword.
  Defaulting to new monopole extrapolation.
  Density update method: density matrix based density update selected.
  Charge integration errors on the 3D integration grid will be compensated
  by explicit normalization and distribution of residual charges.
  Use the "compensate_multipole_errors" flag to change this behaviour.
  Default to 1D ("use_logsbt") integrations for auxiliary 2-center integrals.
  Default onset of logarithmic r-grid for SBT is -38.000000000000
  Default onset of logarithmic k-grid for SBT is -25.000000000000
  Default range of logarithmic r- and k-grid for SBT is  45.000000000000
  Default number of logarithmic r- and k-grid for SBT is   4096
  *** Contour Deformation: Only support 2D parallization. Switching.
  Set 'collect_eigenvectors' to be '.true.' for GW/RPA/MP2, SCREX/COHSEX cluster calculations
  Set 'collect_eigenvectors' to be '.true.' for qpe_calc (quasiparticle energy).
  Set 'collect_eigenvectors' to be '.true.' for KS_method lapack_fast and serial.

  Consistency checks for the contents of geometry.in are next.

  Number of empty states per atom not set in control.in .
  | Since you are using a method that relies on the unoccupied spectrum
  | (MP2,GW,RPA et al.), will use the full Hamiltonian size (see below)
  | as the max. possible number of states (occupied plus empty).

  Structure-dependent array size parameters: 
  | Maximum number of distinct radial functions  :       31
  | Maximum number of basis functions            :       93
  | Number of Kohn-Sham states (occupied + empty):       93
------------------------------------------------------------

------------------------------------------------------------
          Preparing all fixed parts of the calculation.
------------------------------------------------------------
  Determining machine precision:
     2.2250738585072014E-308
  Setting up grids for atomic and cluster calculations.

  Creating wave function, potential, and density for free atoms.
  Runtime choices for atomic solver:
  | atomic solver xc        : PBE
  | compute density gradient: 1
  | compute kinetic density : F

  Species: Be

  List of occupied orbitals and eigenvalues:
    n    l              occ      energy [Ha]    energy [eV]
    1    0           2.0000        -3.902611      -106.1954
    2    0           2.0000        -0.206120        -5.6088


  Species: O

  List of occupied orbitals and eigenvalues:
    n    l              occ      energy [Ha]    energy [eV]
    1    0           2.0000       -18.898644      -514.2583
    2    0           2.0000        -0.878848       -23.9147
    2    1           4.0000        -0.332128        -9.0377


  Adding cutoff potential to free-atom effective potential.
  Creating fixed part of basis set: Ionic, confined, hydrogenic.

  Be                   Gaussian:

  List of cartesian Gaussian basis orbitals: 
    L    l
    0    0
    0    0
    0    0
    0    0
    0    0
    0    0
    0    0
    1    1
    1    1
    1    1
    1    1
    2    2
    2    2
    3    3


  O                    Gaussian:

  List of cartesian Gaussian basis orbitals: 
    L    l
    0    0
    0    0
    0    0
    0    0
    0    0
    0    0
    0    0
    1    1
    1    1
    1    1
    1    1
    2    2
    2    2
    2    2
    3    3
    3    3
    4    4

  Creating atomic-like basis functions for current effective potential.
  Assembling full basis from fixed parts.
  | Species Be : gaussian orbital   0 s accepted.
  | Species Be : gaussian orbital   0 s accepted.
  | Species Be : gaussian orbital   0 s accepted.
  | Species Be : gaussian orbital   0 s accepted.
  | Species Be : gaussian orbital   0 s accepted.
  | Species Be : gaussian orbital   0 s accepted.
  | Species Be : gaussian orbital   0 s accepted.
  | Species Be : gaussian orbital   1 p accepted.
  | Species Be : gaussian orbital   1 p accepted.
  | Species Be : gaussian orbital   1 p accepted.
  | Species Be : gaussian orbital   1 p accepted.
  | Species Be : gaussian orbital   2 d accepted.
  | Species Be : gaussian orbital   2 d accepted.
  | Species Be : gaussian orbital   3 f accepted.
  | Species O : gaussian orbital   0 s accepted.
  | Species O : gaussian orbital   0 s accepted.
  | Species O : gaussian orbital   0 s accepted.
  | Species O : gaussian orbital   0 s accepted.
  | Species O : gaussian orbital   0 s accepted.
  | Species O : gaussian orbital   0 s accepted.
  | Species O : gaussian orbital   0 s accepted.
  | Species O : gaussian orbital   1 p accepted.
  | Species O : gaussian orbital   1 p accepted.
  | Species O : gaussian orbital   1 p accepted.
  | Species O : gaussian orbital   1 p accepted.
  | Species O : gaussian orbital   2 d accepted.
  | Species O : gaussian orbital   2 d accepted.
  | Species O : gaussian orbital   2 d accepted.
  | Species O : gaussian orbital   3 f accepted.
  | Species O : gaussian orbital   3 f accepted.
  | Species O : gaussian orbital   4 g accepted.

  Basis size parameters after reduction:
  | Total number of radial functions:       31
  | Total number of basis functions :       93

  Per-task memory consumption for arrays in subroutine allocate_ext:
  |           7.747580MB.
  Testing on-site integration grid accuracy.
  |  Species  Function  <phi|h_atom|phi> (log., in eV)  <phi|h_atom|phi> (rad., in eV)
           1        1                -64.9658040387                -64.9659109911
           1        2               1491.3252807297               1491.3240719772
           1        3                220.5573971004                220.5573630061
           1        4                222.1943155774                222.1942561171
           1        5                 74.7912751443                 74.7912574966
           1        6                 38.6841003964                 38.6840926660
           1        7                 18.9807274029                 18.9807241007
           1        8                250.4569581891                250.4569582296
           1        9                 16.2660887662                 16.2660894928
           1       10                 14.1263790522                 14.1263792477
           1       11                  8.0021456041                  8.0021456388
           1       12                 19.4009576140                 19.4009577341
           1       13                  8.6759703194                  8.6759702863
           1       14                 25.9958364311                 25.9958363354
           2       15               -362.5768878964               -362.5780591086
           2       16               5562.5547625713               5562.5382888066
           2       17               1025.0233784559               1025.0223449092
           2       18                982.4978511341                982.4966498750
           2       19                433.1899307944                433.1894895256
           2       20                211.6154267980                211.6152499414
           2       21                 95.6225149986                 95.6224483249
           2       22                 18.1342168000                 18.1342169346
           2       23                 65.5300295478                 65.5300294570
           2       24                 49.0580174448                 49.0580169131
           2       25                 26.6733000437                 26.6732994262
           2       26                218.9177453526                218.9177448197
           2       27                147.8581850346                147.8581836466
           2       28                 71.7831007132                 71.7830993621
           2       29                249.7504167360                249.7504160676
           2       30                120.9441017008                120.9441003847
           2       31                235.2477364771                235.2477349267

  Preparing densities etc. for the partition functions (integrals / Hartree potential).

  Preparations completed.
  max(cpu_time)          :      0.154 s.
  Wall clock time (cpu1) :      0.156 s.
------------------------------------------------------------

  Initializing index lists of integration centers etc. from given atomic structure:
  | Number of centers in hartree potential         :         2
  | Number of centers in hartree multipole         :         2
  | Number of centers in electron density summation:         2
  | Number of centers in basis integrals           :         2
  | Number of centers in integrals                 :         2
  | Number of centers in hamiltonian               :         2

------------------------------------------------------------
          Begin self-consistency loop: Initialization.

          Date     :  20240515, Time     :  122813.646
------------------------------------------------------------
  * Using 128 tasks for Scalapack Eigenvalue solver.
  Detailed listing of tasks and assigned k-points:
  (for non-periodic systems, the "k-point" denotes an internal label only)
   Task     0 k-point     1 on n2cn0455.ab2021.local
   Task     1 k-point     1 on n2cn0455.ab2021.local
   Task     2 k-point     1 on n2cn0455.ab2021.local
   Task     3 k-point     1 on n2cn0455.ab2021.local
   Task     4 k-point     1 on n2cn0455.ab2021.local
   Task     5 k-point     1 on n2cn0455.ab2021.local
   Task     6 k-point     1 on n2cn0455.ab2021.local
   Task     7 k-point     1 on n2cn0455.ab2021.local
   Task     8 k-point     1 on n2cn0455.ab2021.local
   Task     9 k-point     1 on n2cn0455.ab2021.local
   Task    10 k-point     1 on n2cn0455.ab2021.local
   Task    11 k-point     1 on n2cn0455.ab2021.local
   Task    12 k-point     1 on n2cn0455.ab2021.local
   Task    13 k-point     1 on n2cn0455.ab2021.local
   Task    14 k-point     1 on n2cn0455.ab2021.local
   Task    15 k-point     1 on n2cn0455.ab2021.local
   Task    16 k-point     1 on n2cn0455.ab2021.local
   Task    17 k-point     1 on n2cn0455.ab2021.local
   Task    18 k-point     1 on n2cn0455.ab2021.local
   Task    19 k-point     1 on n2cn0455.ab2021.local
   Task    20 k-point     1 on n2cn0455.ab2021.local
   Task    21 k-point     1 on n2cn0455.ab2021.local
   Task    22 k-point     1 on n2cn0455.ab2021.local
   Task    23 k-point     1 on n2cn0455.ab2021.local
   Task    24 k-point     1 on n2cn0455.ab2021.local
   Task    25 k-point     1 on n2cn0455.ab2021.local
   Task    26 k-point     1 on n2cn0455.ab2021.local
   Task    27 k-point     1 on n2cn0455.ab2021.local
   Task    28 k-point     1 on n2cn0455.ab2021.local
   Task    29 k-point     1 on n2cn0455.ab2021.local
   Task    30 k-point     1 on n2cn0455.ab2021.local
   Task    31 k-point     1 on n2cn0455.ab2021.local
   Task    32 k-point     1 on n2cn0455.ab2021.local
   Task    33 k-point     1 on n2cn0455.ab2021.local
   Task    34 k-point     1 on n2cn0455.ab2021.local
   Task    35 k-point     1 on n2cn0455.ab2021.local
   Task    36 k-point     1 on n2cn0455.ab2021.local
   Task    37 k-point     1 on n2cn0455.ab2021.local
   Task    38 k-point     1 on n2cn0455.ab2021.local
   Task    39 k-point     1 on n2cn0455.ab2021.local
   Task    40 k-point     1 on n2cn0455.ab2021.local
   Task    41 k-point     1 on n2cn0455.ab2021.local
   Task    42 k-point     1 on n2cn0455.ab2021.local
   Task    43 k-point     1 on n2cn0455.ab2021.local
   Task    44 k-point     1 on n2cn0455.ab2021.local
   Task    45 k-point     1 on n2cn0455.ab2021.local
   Task    46 k-point     1 on n2cn0455.ab2021.local
   Task    47 k-point     1 on n2cn0455.ab2021.local
   Task    48 k-point     1 on n2cn0455.ab2021.local
   Task    49 k-point     1 on n2cn0455.ab2021.local
   Task    50 k-point     1 on n2cn0455.ab2021.local
   Task    51 k-point     1 on n2cn0455.ab2021.local
   Task    52 k-point     1 on n2cn0455.ab2021.local
   Task    53 k-point     1 on n2cn0455.ab2021.local
   Task    54 k-point     1 on n2cn0455.ab2021.local
   Task    55 k-point     1 on n2cn0455.ab2021.local
   Task    56 k-point     1 on n2cn0455.ab2021.local
   Task    57 k-point     1 on n2cn0455.ab2021.local
   Task    58 k-point     1 on n2cn0455.ab2021.local
   Task    59 k-point     1 on n2cn0455.ab2021.local
   Task    60 k-point     1 on n2cn0455.ab2021.local
   Task    61 k-point     1 on n2cn0455.ab2021.local
   Task    62 k-point     1 on n2cn0455.ab2021.local
   Task    63 k-point     1 on n2cn0455.ab2021.local
   Task    64 k-point     1 on n2cn0455.ab2021.local
   Task    65 k-point     1 on n2cn0455.ab2021.local
   Task    66 k-point     1 on n2cn0455.ab2021.local
   Task    67 k-point     1 on n2cn0455.ab2021.local
   Task    68 k-point     1 on n2cn0455.ab2021.local
   Task    69 k-point     1 on n2cn0455.ab2021.local
   Task    70 k-point     1 on n2cn0455.ab2021.local
   Task    71 k-point     1 on n2cn0455.ab2021.local
   Task    72 k-point     1 on n2cn0455.ab2021.local
   Task    73 k-point     1 on n2cn0455.ab2021.local
   Task    74 k-point     1 on n2cn0455.ab2021.local
   Task    75 k-point     1 on n2cn0455.ab2021.local
   Task    76 k-point     1 on n2cn0455.ab2021.local
   Task    77 k-point     1 on n2cn0455.ab2021.local
   Task    78 k-point     1 on n2cn0455.ab2021.local
   Task    79 k-point     1 on n2cn0455.ab2021.local
   Task    80 k-point     1 on n2cn0455.ab2021.local
   Task    81 k-point     1 on n2cn0455.ab2021.local
   Task    82 k-point     1 on n2cn0455.ab2021.local
   Task    83 k-point     1 on n2cn0455.ab2021.local
   Task    84 k-point     1 on n2cn0455.ab2021.local
   Task    85 k-point     1 on n2cn0455.ab2021.local
   Task    86 k-point     1 on n2cn0455.ab2021.local
   Task    87 k-point     1 on n2cn0455.ab2021.local
   Task    88 k-point     1 on n2cn0455.ab2021.local
   Task    89 k-point     1 on n2cn0455.ab2021.local
   Task    90 k-point     1 on n2cn0455.ab2021.local
   Task    91 k-point     1 on n2cn0455.ab2021.local
   Task    92 k-point     1 on n2cn0455.ab2021.local
   Task    93 k-point     1 on n2cn0455.ab2021.local
   Task    94 k-point     1 on n2cn0455.ab2021.local
   Task    95 k-point     1 on n2cn0455.ab2021.local
   Task    96 k-point     1 on n2cn0455.ab2021.local
   Task    97 k-point     1 on n2cn0455.ab2021.local
   Task    98 k-point     1 on n2cn0455.ab2021.local
   Task    99 k-point     1 on n2cn0455.ab2021.local
   Task   100 k-point     1 on n2cn0455.ab2021.local
   Task   101 k-point     1 on n2cn0455.ab2021.local
   Task   102 k-point     1 on n2cn0455.ab2021.local
   Task   103 k-point     1 on n2cn0455.ab2021.local
   Task   104 k-point     1 on n2cn0455.ab2021.local
   Task   105 k-point     1 on n2cn0455.ab2021.local
   Task   106 k-point     1 on n2cn0455.ab2021.local
   Task   107 k-point     1 on n2cn0455.ab2021.local
   Task   108 k-point     1 on n2cn0455.ab2021.local
   Task   109 k-point     1 on n2cn0455.ab2021.local
   Task   110 k-point     1 on n2cn0455.ab2021.local
   Task   111 k-point     1 on n2cn0455.ab2021.local
   Task   112 k-point     1 on n2cn0455.ab2021.local
   Task   113 k-point     1 on n2cn0455.ab2021.local
   Task   114 k-point     1 on n2cn0455.ab2021.local
   Task   115 k-point     1 on n2cn0455.ab2021.local
   Task   116 k-point     1 on n2cn0455.ab2021.local
   Task   117 k-point     1 on n2cn0455.ab2021.local
   Task   118 k-point     1 on n2cn0455.ab2021.local
   Task   119 k-point     1 on n2cn0455.ab2021.local
   Task   120 k-point     1 on n2cn0455.ab2021.local
   Task   121 k-point     1 on n2cn0455.ab2021.local
   Task   122 k-point     1 on n2cn0455.ab2021.local
   Task   123 k-point     1 on n2cn0455.ab2021.local
   Task   124 k-point     1 on n2cn0455.ab2021.local
   Task   125 k-point     1 on n2cn0455.ab2021.local
   Task   126 k-point     1 on n2cn0455.ab2021.local
   Task   127 k-point     1 on n2cn0455.ab2021.local
  Tasks:   128 split into     16 X      8 BLACS grid
  Calculating block size based on n_basis =           93  max_nprow =           16  max_npcol =            8
  ScaLAPACK block size set to:            4
  Allocating        0.001 MB for ovlp
  Allocating        0.001 MB for ham
  Allocating        0.001 MB for eigenvec
  Required Scalapack workspace - INTEGER:          717  REAL:           937
  Partitioning the integration grid into batches with parallel hashing+maxmin method.
  | Number of batches:     1204
  | Maximal batch size:     200
  | Minimal batch size:       2
  | Average batch size:      88.462
  | Standard deviation of batch sizes:      33.173

  Integration load balanced across   128 MPI tasks.
  Work distribution over tasks is as follows:
  Task     0 has        798 integration points.
  Task     1 has        772 integration points.
  Task     2 has        834 integration points.
  Task     3 has        772 integration points.
  Task     4 has        774 integration points.
  Task     5 has        902 integration points.
  Task     6 has        940 integration points.
  Task     7 has        772 integration points.
  Task     8 has        774 integration points.
  Task     9 has        788 integration points.
  Task    10 has        914 integration points.
  Task    11 has        898 integration points.
  Task    12 has        784 integration points.
  Task    13 has        807 integration points.
  Task    14 has        782 integration points.
  Task    15 has        796 integration points.
  Task    16 has        793 integration points.
  Task    17 has        823 integration points.
  Task    18 has        883 integration points.
  Task    19 has        882 integration points.
  Task    20 has        832 integration points.
  Task    21 has        886 integration points.
  Task    22 has        804 integration points.
  Task    23 has        800 integration points.
  Task    24 has        874 integration points.
  Task    25 has        791 integration points.
  Task    26 has        904 integration points.
  Task    27 has        802 integration points.
  Task    28 has        884 integration points.
  Task    29 has        800 integration points.
  Task    30 has        780 integration points.
  Task    31 has        879 integration points.
  Task    32 has        810 integration points.
  Task    33 has        835 integration points.
  Task    34 has        774 integration points.
  Task    35 has        775 integration points.
  Task    36 has        771 integration points.
  Task    37 has        778 integration points.
  Task    38 has        871 integration points.
  Task    39 has        787 integration points.
  Task    40 has        805 integration points.
  Task    41 has        833 integration points.
  Task    42 has        795 integration points.
  Task    43 has        785 integration points.
  Task    44 has        771 integration points.
  Task    45 has        804 integration points.
  Task    46 has        884 integration points.
  Task    47 has        867 integration points.
  Task    48 has        771 integration points.
  Task    49 has        882 integration points.
  Task    50 has        901 integration points.
  Task    51 has        803 integration points.
  Task    52 has        901 integration points.
  Task    53 has        885 integration points.
  Task    54 has        870 integration points.
  Task    55 has        835 integration points.
  Task    56 has        831 integration points.
  Task    57 has        801 integration points.
  Task    58 has        788 integration points.
  Task    59 has        916 integration points.
  Task    60 has        799 integration points.
  Task    61 has        818 integration points.
  Task    62 has        822 integration points.
  Task    63 has        787 integration points.
  Task    64 has        877 integration points.
  Task    65 has        800 integration points.
  Task    66 has        874 integration points.
  Task    67 has        827 integration points.
  Task    68 has        836 integration points.
  Task    69 has        798 integration points.
  Task    70 has        774 integration points.
  Task    71 has        825 integration points.
  Task    72 has        805 integration points.
  Task    73 has        831 integration points.
  Task    74 has        873 integration points.
  Task    75 has        835 integration points.
  Task    76 has        874 integration points.
  Task    77 has        821 integration points.
  Task    78 has        807 integration points.
  Task    79 has        881 integration points.
  Task    80 has        781 integration points.
  Task    81 has        810 integration points.
  Task    82 has        883 integration points.
  Task    83 has        804 integration points.
  Task    84 has        786 integration points.
  Task    85 has        872 integration points.
  Task    86 has        823 integration points.
  Task    87 has        837 integration points.
  Task    88 has        800 integration points.
  Task    89 has        879 integration points.
  Task    90 has        903 integration points.
  Task    91 has        790 integration points.
  Task    92 has        788 integration points.
  Task    93 has        886 integration points.
  Task    94 has        900 integration points.
  Task    95 has        829 integration points.
  Task    96 has        886 integration points.
  Task    97 has        833 integration points.
  Task    98 has        872 integration points.
  Task    99 has        799 integration points.
  Task   100 has        790 integration points.
  Task   101 has        773 integration points.
  Task   102 has        889 integration points.
  Task   103 has        887 integration points.
  Task   104 has        879 integration points.
  Task   105 has        874 integration points.
  Task   106 has        782 integration points.
  Task   107 has        883 integration points.
  Task   108 has        801 integration points.
  Task   109 has        880 integration points.
  Task   110 has        772 integration points.
  Task   111 has        814 integration points.
  Task   112 has        789 integration points.
  Task   113 has        902 integration points.
  Task   114 has        814 integration points.
  Task   115 has        795 integration points.
  Task   116 has        885 integration points.
  Task   117 has        785 integration points.
  Task   118 has        882 integration points.
  Task   119 has        874 integration points.
  Task   120 has        833 integration points.
  Task   121 has        802 integration points.
  Task   122 has        886 integration points.
  Task   123 has        836 integration points.
  Task   124 has        823 integration points.
  Task   125 has        791 integration points.
  Task   126 has        940 integration points.
  Task   127 has        869 integration points.
  Initializing partition tables, free-atom densities, potentials, etc. across the integration grid (initialize_grid_storage).
  | Net number of integration points:   106508
  | of which are non-zero points    :   106375
  Renormalizing the initial density to the exact electron count on the 3D integration grid.
  | Initial density: Formal number of electrons (from input files) :      12.0000000000
  | Integrated number of electrons on 3D grid     :      12.0000002485
  | Charge integration error                      :       0.0000002485
  | Normalization factor for density and gradient :       0.9999999793
  Renormalizing the free-atom superposition density to the exact electron count on the 3D integration grid.
  | Formal number of electrons (from input files) :      12.0000000000
  | Integrated number of electrons on 3D grid     :      12.0000002485
  | Charge integration error                      :       0.0000002485
  | Normalization factor for density and gradient :       0.9999999793
  Obtaining max. number of non-zero basis functions in each batch (get_n_compute_maxes).
  | Maximal number of non-zero basis functions:       93 in task     0
  | Maximal number of non-zero basis functions:       88 in task     1
  | Maximal number of non-zero basis functions:       93 in task     2
  | Maximal number of non-zero basis functions:       88 in task     3
  | Maximal number of non-zero basis functions:       93 in task     4
  | Maximal number of non-zero basis functions:       88 in task     5
  | Maximal number of non-zero basis functions:       88 in task     6
  | Maximal number of non-zero basis functions:       87 in task     7
  | Maximal number of non-zero basis functions:       91 in task     8
  | Maximal number of non-zero basis functions:       88 in task     9
  | Maximal number of non-zero basis functions:       91 in task    10
  | Maximal number of non-zero basis functions:       88 in task    11
  | Maximal number of non-zero basis functions:       92 in task    12
  | Maximal number of non-zero basis functions:       93 in task    13
  | Maximal number of non-zero basis functions:       93 in task    14
  | Maximal number of non-zero basis functions:       88 in task    15
  | Maximal number of non-zero basis functions:       91 in task    16
  | Maximal number of non-zero basis functions:       93 in task    17
  | Maximal number of non-zero basis functions:       88 in task    18
  | Maximal number of non-zero basis functions:       91 in task    19
  | Maximal number of non-zero basis functions:       91 in task    20
  | Maximal number of non-zero basis functions:       88 in task    21
  | Maximal number of non-zero basis functions:       93 in task    22
  | Maximal number of non-zero basis functions:       90 in task    23
  | Maximal number of non-zero basis functions:       88 in task    24
  | Maximal number of non-zero basis functions:       90 in task    25
  | Maximal number of non-zero basis functions:       93 in task    26
  | Maximal number of non-zero basis functions:       88 in task    27
  | Maximal number of non-zero basis functions:       90 in task    28
  | Maximal number of non-zero basis functions:       90 in task    29
  | Maximal number of non-zero basis functions:       89 in task    30
  | Maximal number of non-zero basis functions:       91 in task    31
  | Maximal number of non-zero basis functions:       90 in task    32
  | Maximal number of non-zero basis functions:       86 in task    33
  | Maximal number of non-zero basis functions:       91 in task    34
  | Maximal number of non-zero basis functions:       86 in task    35
  | Maximal number of non-zero basis functions:       88 in task    36
  | Maximal number of non-zero basis functions:       91 in task    37
  | Maximal number of non-zero basis functions:       88 in task    38
  | Maximal number of non-zero basis functions:       88 in task    39
  | Maximal number of non-zero basis functions:       88 in task    40
  | Maximal number of non-zero basis functions:       90 in task    41
  | Maximal number of non-zero basis functions:       90 in task    42
  | Maximal number of non-zero basis functions:       91 in task    43
  | Maximal number of non-zero basis functions:       90 in task    44
  | Maximal number of non-zero basis functions:       93 in task    45
  | Maximal number of non-zero basis functions:       92 in task    46
  | Maximal number of non-zero basis functions:       90 in task    47
  | Maximal number of non-zero basis functions:       90 in task    48
  | Maximal number of non-zero basis functions:       91 in task    49
  | Maximal number of non-zero basis functions:       90 in task    50
  | Maximal number of non-zero basis functions:       90 in task    51
  | Maximal number of non-zero basis functions:       93 in task    52
  | Maximal number of non-zero basis functions:       91 in task    53
  | Maximal number of non-zero basis functions:       90 in task    54
  | Maximal number of non-zero basis functions:       91 in task    55
  | Maximal number of non-zero basis functions:       91 in task    56
  | Maximal number of non-zero basis functions:       91 in task    57
  | Maximal number of non-zero basis functions:       90 in task    58
  | Maximal number of non-zero basis functions:       87 in task    59
  | Maximal number of non-zero basis functions:       88 in task    60
  | Maximal number of non-zero basis functions:       91 in task    61
  | Maximal number of non-zero basis functions:       93 in task    62
  | Maximal number of non-zero basis functions:       89 in task    63
  | Maximal number of non-zero basis functions:       90 in task    64
  | Maximal number of non-zero basis functions:       91 in task    65
  | Maximal number of non-zero basis functions:       93 in task    66
  | Maximal number of non-zero basis functions:       91 in task    67
  | Maximal number of non-zero basis functions:       91 in task    68
  | Maximal number of non-zero basis functions:       84 in task    69
  | Maximal number of non-zero basis functions:       88 in task    70
  | Maximal number of non-zero basis functions:       90 in task    71
  | Maximal number of non-zero basis functions:       88 in task    72
  | Maximal number of non-zero basis functions:       91 in task    73
  | Maximal number of non-zero basis functions:       88 in task    74
  | Maximal number of non-zero basis functions:       90 in task    75
  | Maximal number of non-zero basis functions:       90 in task    76
  | Maximal number of non-zero basis functions:       88 in task    77
  | Maximal number of non-zero basis functions:       93 in task    78
  | Maximal number of non-zero basis functions:       93 in task    79
  | Maximal number of non-zero basis functions:       91 in task    80
  | Maximal number of non-zero basis functions:       88 in task    81
  | Maximal number of non-zero basis functions:       91 in task    82
  | Maximal number of non-zero basis functions:       88 in task    83
  | Maximal number of non-zero basis functions:       88 in task    84
  | Maximal number of non-zero basis functions:       90 in task    85
  | Maximal number of non-zero basis functions:       88 in task    86
  | Maximal number of non-zero basis functions:       93 in task    87
  | Maximal number of non-zero basis functions:       93 in task    88
  | Maximal number of non-zero basis functions:       89 in task    89
  | Maximal number of non-zero basis functions:       93 in task    90
  | Maximal number of non-zero basis functions:       90 in task    91
  | Maximal number of non-zero basis functions:       89 in task    92
  | Maximal number of non-zero basis functions:       93 in task    93
  | Maximal number of non-zero basis functions:       93 in task    94
  | Maximal number of non-zero basis functions:       93 in task    95
  | Maximal number of non-zero basis functions:       88 in task    96
  | Maximal number of non-zero basis functions:       90 in task    97
  | Maximal number of non-zero basis functions:       88 in task    98
  | Maximal number of non-zero basis functions:       88 in task    99
  | Maximal number of non-zero basis functions:       93 in task   100
  | Maximal number of non-zero basis functions:       87 in task   101
  | Maximal number of non-zero basis functions:       90 in task   102
  | Maximal number of non-zero basis functions:       92 in task   103
  | Maximal number of non-zero basis functions:       90 in task   104
  | Maximal number of non-zero basis functions:       88 in task   105
  | Maximal number of non-zero basis functions:       91 in task   106
  | Maximal number of non-zero basis functions:       93 in task   107
  | Maximal number of non-zero basis functions:       90 in task   108
  | Maximal number of non-zero basis functions:       93 in task   109
  | Maximal number of non-zero basis functions:       90 in task   110
  | Maximal number of non-zero basis functions:       90 in task   111
  | Maximal number of non-zero basis functions:       93 in task   112
  | Maximal number of non-zero basis functions:       93 in task   113
  | Maximal number of non-zero basis functions:       90 in task   114
  | Maximal number of non-zero basis functions:       88 in task   115
  | Maximal number of non-zero basis functions:       90 in task   116
  | Maximal number of non-zero basis functions:       89 in task   117
  | Maximal number of non-zero basis functions:       91 in task   118
  | Maximal number of non-zero basis functions:       88 in task   119
  | Maximal number of non-zero basis functions:       91 in task   120
  | Maximal number of non-zero basis functions:       89 in task   121
  | Maximal number of non-zero basis functions:       92 in task   122
  | Maximal number of non-zero basis functions:       93 in task   123
  | Maximal number of non-zero basis functions:       91 in task   124
  | Maximal number of non-zero basis functions:       93 in task   125
[...]
 ------------------------------------------------------------
  Start contour deformation for level:     16    
 ------------------------------------------------------------
  Step:    1
  Step:    2
  Step:    3
  Step:    4
  Step:    5
  Step:    6
  Step:    7
  Step:    8
  Step:    9
  Step:   10
  Step:   11
  Step:   12
  Step:   13
  Step:   14
  Step:   15
  Step:   16
  Step:   17
  Step:   18

 ------------------------------------------------------------
  Start contour deformation for level:     17    
 ------------------------------------------------------------
  Step:    1
  Step:    2
  Step:    3
  Step:    4
  Step:    5
  Step:    6
  Step:    7
  Step:    8
  Step:    9
  Step:   10
  Step:   11
  Step:   12
  Step:   13

----------------------------------------------------------------------------------------
    GW quasi-particle energy levels

               Start contour deformation at level:      1
               End contour deformation at level:       17

               e_qp = e_gs + e_x^ex - e_xc^gs + e_c^nloc

  state     occ_num        e_gs        e_x^ex        e_xc^gs        e_c^nloc        e_qp
----------------------------------------------------------------------------------------
----------------------------------------------------------------------------------------
       1    2.0000     -508.3824     -132.5814      -83.7328 *** no convergence (see below) ***
       2    2.0000     -105.5324      -61.9409      -39.6997 *** no convergence (see below) ***
       3    2.0000      -20.9194      -33.3377      -21.9148        7.3265      -25.0158
       4    2.0000       -6.8649      -24.9329      -18.7575        4.0787       -8.9616
       5    2.0000       -6.1315      -22.0960      -16.8716        1.7365       -9.6193
       6    2.0000       -6.1315      -22.0960      -16.8716        1.7365       -9.6193
       7    0.0000       -4.7948       -2.6347       -6.4324       -1.4477       -2.4448
       8    0.0000       -0.5506       -3.1833       -6.3812       -1.0523        1.5950
       9    0.0000       -0.5506       -3.1833       -6.3812       -1.0523        1.5950
      10    0.0000        0.9975       -0.6973       -2.5994       -0.5458        2.3537
      11    0.0000        1.3249       -0.4737       -2.6841       -0.7758        2.7594
      12    0.0000        2.7090       -1.0380       -3.8570       -0.7955        4.7326
      13    0.0000        2.7090       -1.0380       -3.8570       -0.7955        4.7326
      14    0.0000        4.4364       -0.4974       -3.2601       -0.4771        6.7219
      15    0.0000        4.4364       -0.4974       -3.2601       -0.4771        6.7219
      16    0.0000        4.8498       -1.0532       -3.6583       -0.6135        6.8414
      17    0.0000        5.6262       -1.6049       -4.6875       -0.4663        8.2425
      18    0.0000        5.6262       -1.6049       -4.6875       -0.5229        8.1859
      19    0.0000        7.5729       -1.8993       -5.1944       -0.8827        9.9853
      20    0.0000       10.9081       -1.4376       -5.0837       -1.1537       13.4005
      21    0.0000       11.2216       -1.7770       -5.6324       -1.2965       13.7805
      22    0.0000       11.2216       -1.7770       -5.6324       -1.3038       13.7732
      23    0.0000       13.1119       -1.3245       -5.6197       -1.5212       15.8859
      24    0.0000       14.6775       -1.6961       -7.1621       -1.5670       18.5764
      25    0.0000       14.6775       -1.6961       -7.1621       -1.5276       18.6158
      26    0.0000       18.1183       -4.3943      -11.1757       -2.7414       22.1583
      27    0.0000       23.2882       -2.1053       -8.2994       -2.7444       26.7378
      28    0.0000       23.2882       -2.1053       -8.2994       -2.7909       26.6914
      29    0.0000       23.3594       -1.5795       -6.8887       -2.0523       26.6162
      30    0.0000       23.3594       -1.5795       -6.8887       -1.9343       26.7342
      31    0.0000       24.6127       -1.0874       -6.3866       -0.8972       29.0147
      32    0.0000       24.6127       -1.0874       -6.3866       -1.9183       27.9935
      33    0.0000       25.7958       -2.7106       -8.2549       -2.0144       29.3257
      34    0.0000       26.3550       -0.5521       -5.8254       -1.5852       30.0431
      35    0.0000       26.3550       -0.5521       -5.8254       -1.5706       30.0578
      36    0.0000       29.4257       -1.6537       -6.7342       -1.5033       33.0029
      37    0.0000       31.6300       -2.1266       -8.1569       -0.9271       36.7331
      38    0.0000       31.6300       -2.1266       -8.1569       -0.7811       36.8792
      39    0.0000       35.9600       -3.6540      -10.9613       -2.7904       40.4768
      40    0.0000       37.5172       -2.1989       -9.2250       -1.7423       42.8010
      41    0.0000       37.5172       -2.1989       -9.2250       -1.8595       42.6837
      42    0.0000       39.6884       -3.9805      -12.5781       -4.3079       43.9782
      43    0.0000       39.6884       -3.9805      -12.5781       -4.3247       43.9613
      44    0.0000       44.6624       -4.2338      -13.4975       -3.4853       50.4407
      45    0.0000       50.0454       -2.1293      -10.0477       -1.5672       56.3966
      46    0.0000       50.0454       -2.1293      -10.0477       -1.5014       56.4624
      47    0.0000       60.7904       -3.1366      -12.4367       -1.4990       68.5915
      48    0.0000       71.8440       -4.6465      -14.6394       -1.7140       80.1229
      49    0.0000       85.1809       -2.5301      -13.5812       -1.6479       94.5842
      50    0.0000       85.1809       -2.5301      -13.5812       -1.7013       94.5307
      51    0.0000       89.3806       -3.0035      -14.4558       -2.4585       98.3745
      52    0.0000       89.3806       -3.0035      -14.4558       -2.2553       98.5777
      53    0.0000       91.9967       -6.0923      -18.2847       -3.8095      100.3795
      54    0.0000       92.6204       -3.9589      -16.1159       -2.6077      102.1697
      55    0.0000       92.6204       -3.9589      -16.1159       -2.8077      101.9697
      56    0.0000      105.5361       -4.7821      -18.1140       -4.2358      114.6321
      57    0.0000      105.5361       -4.7821      -18.1140       -4.9335      113.9344
      58    0.0000      107.4381       -5.5955      -19.1597       -4.1415      116.8609
      59    0.0000      114.1054       -4.2682      -17.5939       -4.2568      123.1743
      60    0.0000      114.1054       -4.2682      -17.5939       -4.5009      122.9301
      61    0.0000      124.2638       -4.1770      -17.8991       -3.3520      134.6338
      62    0.0000      136.0704       -7.7216      -25.2150       -9.3968      144.1671
      63    0.0000      136.0704       -7.7216      -25.2150       -9.6065      143.9574
      64    0.0000      146.4709       -7.1913      -24.5325       -8.2158      155.5963
      65    0.0000      238.6805       -2.5993      -19.4040       -2.8271      252.6581
      66    0.0000      238.6805       -2.5993      -19.4040       -1.3679      254.1172
      67    0.0000      239.0676       -2.4657      -19.1418       -2.0595      253.6843
      68    0.0000      239.0676       -2.4657      -19.1418       -1.9991      253.7447
      69    0.0000      239.3242       -2.3979      -18.9815       -1.7358      254.1719
      70    0.0000      239.3242       -2.3979      -18.9815       -1.9707      253.9370
      71    0.0000      239.6742       -2.3073      -18.7625       -1.8721      254.2573
      72    0.0000      239.6742       -2.3073      -18.7625       -1.9560      254.1734
      73    0.0000      243.3047       -2.6567      -19.6212       -1.9147      258.3545
      74    0.0000      282.3009       -9.1160      -31.8605       -3.5225      301.5229
      75    0.0000      282.3009       -9.1160      -31.8605       -3.5255      301.5199
      76    0.0000      295.4472       -3.4202      -23.0334       -4.6833      310.3770
      77    0.0000      295.4472       -3.4202      -23.0334       -5.1145      309.9458
      78    0.0000      298.4253       -3.4781      -23.1975       -5.1054      313.0393
      79    0.0000      298.4254       -3.4781      -23.1975       -5.5742      312.5706
      80    0.0000      305.8631       -4.5656      -24.8972       -4.4496      321.7451
      81    0.0000      305.9573       -4.4351      -24.8491       -4.7318      321.6394
      82    0.0000      305.9573       -4.4351      -24.8491       -5.4610      320.9102
      83    0.0000      307.5744       -8.2448      -29.6090       -3.0532      325.8855
      84    0.0000      324.2532       -4.2966      -25.4801       -7.6353      337.8014
      85    0.0000      324.2549       -4.2965      -25.4802       -6.8992      338.5393
      86    0.0000      330.9128       -4.3519      -25.5454       -5.6029      346.5034
      87    0.0000      330.9128       -4.3519      -25.5454       -5.3711      346.7352
      88    0.0000      333.3251       -9.7959      -32.5689       -3.0681      353.0300
      89    0.0000      334.3979       -4.2586      -25.4381       -5.9866      349.5907
      90    0.0000      363.3470       -9.6732      -32.2571       -4.9358      380.9951
      91    0.0000     1282.4019      -18.2638      -62.4112       -2.3803     1324.1691
      92    0.0000     1728.2432       -9.6354      -62.0489       -3.9527     1776.7040
      93    0.0000     6846.6582      -20.7959     -126.4129       -1.6456     6950.6296
----------------------------------------------------------------------------------------

   DFT/Hartree-Fock HOMO level (eV):    -6.1315   -6.1315

   Quasiparticle HOMO level (eV):       -9.6193   -9.6193
----------------------------------------------------------------------------------------

  Printing out the self-energy matrix element:  6 for spin  1

------------------------------------------------------------------------------------------------------

  Start calculating the spectral function for state:  6

------------------------------------------------------------------------------------------------------

          | Total time for transforming the 3-center integrals :        0.160 s
          | Total time for calculating the exchange-correlation
                                  energy matrix elements   :        0.005 s
          | Total time for calculating polarisability     
                        for imaginary frequencies          :        6.280 s
          | Total time for calculating self energy 
                        on imaginary frequency axis        :       57.617 s
          | Total time for calculating the quasiparticle 
                  energies with analytic continuation      :        0.014 s
          | Total time for calculating the quasiparticle 
                  energies with contour deformation        :      142.958 s

------------------------------------------------------------------------------
  Final output of selected total energy values:

  The following output summarizes some interesting total energy values
  at the end of a run (AFTER all relaxation, molecular dynamics, etc.).

  | Total energy of the DFT / Hartree-Fock s.c.f. calculation      :          -2444.570373153 eV
  | Final zero-broadening corrected energy (caution - metals only) :          -2444.570373153 eV
  | For reference only, the value of 1 Hartree used in FHI-aims is :             27.211384500 eV

  Before relying on these values, please be sure to understand exactly which
  total energy value is referred to by a given number. Different objects may
  all carry the same name 'total energy'. Definitions:

  Total energy of the DFT / Hartree-Fock s.c.f. calculation:
  | Note that this energy does not include ANY quantities calculated after the
  | s.c.f. cycle, in particular not ANY RPA, MP2, etc. many-body perturbation terms.

  Final zero-broadening corrected energy:
  | For metallic systems only, a broadening of the occupation numbers at the Fermi
  | level can be extrapolated back to zero broadening by an electron-gas inspired
  | formula. For all systems that are not real metals, this value can be
  | meaningless and should be avoided.

------------------------------------------------------------------------------
  Methods described in the following list of references were used in this FHI-aims run.
  If you publish the results, please make sure to cite these reference if they apply.
  FHI-aims is an academic code, and for our developers (often, Ph.D. students
  and postdocs), scientific credit in the community is essential.
  Thank you for helping us!

  For any use of FHI-aims, please cite:

    Volker Blum, Ralf Gehrke, Felix Hanke, Paula Havu, Ville Havu,
    Xinguo Ren, Karsten Reuter, and Matthias Scheffler
    'Ab initio molecular simulations with numeric atom-centered orbitals'
    Computer Physics Communications 180, 2175-2196 (2009)
    http://doi.org/10.1016/j.cpc.2009.06.022


  For Hartree-Fock, hybrid functionals, or many-body perturbation theory used in your run, please cite:

    Xinguo Ren, Patrick Rinke, Volker Blum, Juergen Wieferink, Alex Tkatchenko,
    Andrea Sanfilippo, Karsten Reuter, and Matthias Scheffler,
    'Resolution-of-identity approach to Hartree-Fock, hybrid density functionals,
    RPA, MP2, and GW with numeric atom-centered orbital basis functions'
    New Journal of Physics 14, 053020 (2012).
    http://doi.org/10.1088/1367-2630/14/5/053020


  The ELSI infrastructure was used in your run to solve the Kohn-Sham electronic structure.
  Please check out http://elsi-interchange.org to learn more.
  If scalability is important for your project, please acknowledge ELSI by citing:

    V. W-z. Yu, F. Corsetti, A. Garcia, W. P. Huhn, M. Jacquelin, W. Jia,
    B. Lange, L. Lin, J. Lu, W. Mi, A. Seifitokaldani, A. Vazquez-Mayagoitia,
    C. Yang, H. Yang, and V. Blum
    'ELSI: A unified software interface for Kohn-Sham electronic structure solvers'
    Computer Physics Communications 222, 267-285 (2018).
    http://doi.org/10.1016/j.cpc.2017.09.007


  For the real-space grid partitioning and parallelization used in this calculation, please cite:

    Ville Havu, Volker Blum, Paula Havu, and Matthias Scheffler,
    'Efficient O(N) integration for all-electron electronic structure calculation'
    'using numerically tabulated basis functions'
    Journal of Computational Physics 228, 8367-8379 (2009).
    http://doi.org/10.1016/j.jcp.2009.08.008

  Of course, there are many other important community references, e.g., those cited in the
  above references. Our list is limited to references that describe implementations in the
  FHI-aims code. The reason is purely practical (length of this list) - please credit others as well.

 * Warning - angular integration grids had to be adjusted for use with RI_method 'V'.
 * Background: You are using an electronic structure method that requires RI_method 'V'
 * for the resolution of identity of the Coulomb operator. (See Ren et al.,
 * New J. Phys 2012 for details.) This method requires three-center integrations
 * to be carried out on FHI-aims' normal angular and radial integration grids.
 * (See FHI-aims CPC Blum et al. 2009, p. 2183 for grid details and references.)
 * One of the angular grids specified in your control.in file was not large
 * enough for the maximal angular momenta of orbital and product basis functions
 * for its species.
 * This can lead to atomic total energy errors which cancel in energy differences.
 * Effective Sep 22, 2014, we have changed the default behavior of the code to
 * simply 'upgrade' the angular grids internally to a safe setting in this case.
 * Please be sure to NOT mix total energies from before and after the change.

------------------------------------------------------------
          Leaving FHI-aims.
          Date     :  20240515, Time     :  123413.102

          Computational steps:
          | Number of self-consistency cycles          :           21
          | Number of SCF (re)initializations          :            1

          Detailed time accounting                     :  max(cpu_time)    wall_clock(cpu1)
          | Total time                                  :      356.254 s         360.215 s
          | Preparation time                            :        0.154 s           0.156 s
          | Boundary condition initalization            :        0.001 s           0.001 s
          | Grid partitioning                           :        0.032 s           0.031 s
          | Preloading free-atom quantities on grid     :        0.015 s           0.015 s
          | Free-atom superposition energy              :        0.002 s           0.002 s
          | Total time for integrations                 :        0.203 s           0.162 s
          | Product basis setup: Total time             :        0.000 s           0.000 s
          | Product basis: | 3-center integrations     :(       1.126 s)  (       1.131 s)
          | Product basis: | 2-center integrations     :(       0.085 s)  (       0.086 s)
          | Product basis: | 2-center linear algebra   :(       0.426 s)  (       0.431 s)
          | Product basis: | 3-center x 2-center       :(       0.420 s)  (       0.595 s)
          | Transforming ovlp_3fn to ovlp_3KS           :        0.160 s           0.162 s
          | Screened Coulomb matrix W_mn(iw)            :       64.050 s          64.433 s
          | Polarisability matrix Pi_PQ(iw)             :        6.280 s           6.280 s
          | Total time for GW calculation               :      349.213 s         352.476 s
          | GW self-energy (analytic cont.)             :       64.318 s          64.732 s
          | Contour def: | Solving qp equations         :      142.958 s         143.563 s
          | Contour def: | GW self-energy               :      283.892 s         284.794 s
          | Contour def: | Scr Coulomb matrix W_mn(w)   :      283.025 s         283.869 s
          | Contour def: | CD-WAC W_mn(w) and Pade      :        0.000 s           0.000 s
          | Contour def: | Scr aux Coulomb mat W_PQ(w)  :      209.700 s         210.482 s
          | Contour def: | Polarisability Pi_PQ(w)      :      108.940 s         108.998 s
          | Contour def: | Printing self-energy CD      :      137.797 s         138.465 s
          | Contour def: | Spectral function CD         :        3.954 s           5.366 s
          | Total time for solution of K.-S. equations  :        0.563 s           0.563 s
          | Total time for density update               :        0.220 s           0.222 s
          | Total time for mixing                       :        2.908 s           2.425 s
          | Total time for Hartree multipole update     :        0.180 s           0.181 s
          | Total time for Hartree multipole sum        :        0.159 s           0.161 s
          | Total time for total energy evaluation      :        0.009 s           0.011 s

          Partial memory accounting:
          | Residual value for overall tracked memory usage across tasks:     0.000000 MB (should be 0.000000 MB)
          | Peak values for overall tracked memory usage:
          |   Minimum:        0.995 MB (on task  69 after allocating gradient_basis_wave)
          |   Maximum:        1.090 MB (on task   0 after allocating gradient_basis_wave)
          |   Average:        1.060 MB
          | Largest tracked array allocation:
          |   Minimum:        0.385 MB (gradient_basis_wave on task  69)
          |   Maximum:        0.426 MB (gradient_basis_wave on task   0)
          |   Average:        0.413 MB
          Note:  These values currently only include a subset of arrays which are explicitly tracked.
          The "true" memory usage will be greater.

          Have a nice day.
------------------------------------------------------------
