 DBCSR| CPU Multiplication driver                                           XSMM (U)
 DBCSR| Multrec recursion limit                                              512 (U)
 DBCSR| Multiplication stack size                                           1000 (D)
 DBCSR| Maximum elements for images                                    UNLIMITED (U)
 DBCSR| Multiplicative factor virtual images                                   1 (U)
 DBCSR| Use multiplication densification                                       T (D)
 DBCSR| Multiplication size stacks                                             3 (U)
 DBCSR| Use memory pool for CPU allocation                                     F (U)
 DBCSR| Number of 3D layers                                               SINGLE (U)
 DBCSR| Use MPI memory allocation                                              F (U)
 DBCSR| Use RMA algorithm                                                      F (U)
 DBCSR| Use Communication thread                                               T (U)
 DBCSR| Communication thread load                                             87 (D)
 DBCSR| MPI: My process id                                                     0
 DBCSR| MPI: Number of processes                                               1
 DBCSR| OMP: Current number of threads                                         1
 DBCSR| OMP: Max number of threads                                             1
 DBCSR| Split modifier for TAS multiplication algorithm                  1.0E+00 (U)


  **** **** ******  **  PROGRAM STARTED AT               2024-05-14 13:00:29.972
 ***** ** ***  *** **   PROGRAM STARTED ON                           surface-mia
 **    ****   ******    PROGRAM STARTED BY                                   mia
 ***** **    ** ** **   PROGRAM PROCESS ID                                 37999
  **** **  *******  **  PROGRAM STARTED IN /home/mia/Dokumente/GW100/Paper/Fig_4
                                           /6_BN_PBE

 CP2K| version string:                 CP2K version 2024.1 (Development Version)
 CP2K| source code revision number:                                  git:5a0b72e
 CP2K| cp2kflags: omp libint fftw3 libxc parallel mpi_f08 scalapack xsmm        
 CP2K| is freely available from                            https://www.cp2k.org/
 CP2K| Program compiled at                         Di 14. Mai 11:56:18 CEST 2024
 CP2K| Program compiled on                                           surface-mia
 CP2K| Program compiled for                                                local
 CP2K| Data directory path                    /home/mia/Dokumente/Code/cp2k/data
 CP2K| Input file name                                                    GW.inp

 GLOBAL| Force Environment number                                              1
 GLOBAL| Basis set file name                              BASIS_def2_QZVP_RI_ALL
 GLOBAL| Potential file name                                           POTENTIAL
 GLOBAL| MM Potential file name                                     MM_POTENTIAL
 GLOBAL| Coordinate file name                                      __STD_INPUT__
 GLOBAL| Method name                                                        CP2K
 GLOBAL| Project name                                                   ALL_ELEC
 GLOBAL| Run type                                                         ENERGY
 GLOBAL| FFT library                                                       FFTW3
 GLOBAL| Diagonalization library                                       ScaLAPACK
 GLOBAL| DGEMM library                                                      BLAS
 GLOBAL| Orthonormality check for eigenvectors                          DISABLED
 GLOBAL| Matrix multiplication library                                 ScaLAPACK
 GLOBAL| All-to-all communication in single precision                          F
 GLOBAL| FFTs using library dependent lengths                                  F
 GLOBAL| Grid backend                                                       AUTO
 GLOBAL| Global print level                                               MEDIUM
 GLOBAL| MPI I/O enabled                                                       T
 GLOBAL| Total number of message passing processes                             1
 GLOBAL| Number of threads for this process                                    1
 GLOBAL| This output is from process                                           0
 GLOBAL| Stack size for threads created by OpenMP (OMP_STACKSIZE)        default
 GLOBAL| CPU model name           11th Gen Intel(R) Core(TM) i5-1135G7 @ 2.40GHz
 GLOBAL| CPUID                                                              1003
 GLOBAL| Compiled for CPUID                                                    0

 *** HINT in environment.F:920 :: The compiler target flags (generic) used ***
 *** to build this binary cannot exploit all extensions of this CPU model  ***
 *** (x86_avx512). Consider compiler target flags as part of FCFLAGS and   ***
 *** CFLAGS (ARCH file).                                                   ***


 MEMORY| system memory details [Kb]
 MEMORY|                        rank 0           min           max       average
 MEMORY| MemTotal              7965312       7965312       7965312       7965312
 MEMORY| MemFree               4224456       4224456       4224456       4224456
 MEMORY| Buffers                 43936         43936         43936         43936
 MEMORY| Cached                1277268       1277268       1277268       1277268
 MEMORY| Slab                   245720        245720        245720        245720
 MEMORY| SReclaimable            92864         92864         92864         92864
 MEMORY| MemLikelyFree         5638524       5638524       5638524       5638524


 *** Fundamental physical constants (SI units) ***

 *** Literature: B. J. Mohr and B. N. Taylor,
 ***             CODATA recommended values of the fundamental physical
 ***             constants: 2006, Web Version 5.1
 ***             http://physics.nist.gov/constants

 Speed of light in vacuum [m/s]                             2.99792458000000E+08
 Magnetic constant or permeability of vacuum [N/A**2]       1.25663706143592E-06
 Electric constant or permittivity of vacuum [F/m]          8.85418781762039E-12
 Planck constant (h) [J*s]                                  6.62606896000000E-34
 Planck constant (h-bar) [J*s]                              1.05457162825177E-34
 Elementary charge [C]                                      1.60217648700000E-19
 Electron mass [kg]                                         9.10938215000000E-31
 Electron g factor [ ]                                     -2.00231930436220E+00
 Proton mass [kg]                                           1.67262163700000E-27
 Fine-structure constant                                    7.29735253760000E-03
 Rydberg constant [1/m]                                     1.09737315685270E+07
 Avogadro constant [1/mol]                                  6.02214179000000E+23
 Boltzmann constant [J/K]                                   1.38065040000000E-23
 Atomic mass unit [kg]                                      1.66053878200000E-27
 Bohr radius [m]                                            5.29177208590000E-11

 *** Conversion factors ***

 [u] -> [a.u.]                                              1.82288848426455E+03
 [Angstrom] -> [Bohr] = [a.u.]                              1.88972613288564E+00
 [a.u.] = [Bohr] -> [Angstrom]                              5.29177208590000E-01
 [a.u.] -> [s]                                              2.41888432650478E-17
 [a.u.] -> [fs]                                             2.41888432650478E-02
 [a.u.] -> [J]                                              4.35974393937059E-18
 [a.u.] -> [N]                                              8.23872205491840E-08
 [a.u.] -> [K]                                              3.15774647902944E+05
 [a.u.] -> [kJ/mol]                                         2.62549961709828E+03
 [a.u.] -> [kcal/mol]                                       6.27509468713739E+02
 [a.u.] -> [Pa]                                             2.94210107994716E+13
 [a.u.] -> [bar]                                            2.94210107994716E+08
 [a.u.] -> [atm]                                            2.90362800883016E+08
 [a.u.] -> [eV]                                             2.72113838565563E+01
 [a.u.] -> [Hz]                                             6.57968392072181E+15
 [a.u.] -> [1/cm] (wave numbers)                            2.19474631370540E+05
 [a.u./Bohr**2] -> [1/cm]                                   5.14048714338585E+03
 

 CELL_TOP| Volume [angstrom^3]:                                      1000.000000
 CELL_TOP| Vector a [angstrom    10.000     0.000     0.000   |a| =    10.000000
 CELL_TOP| Vector b [angstrom     0.000    10.000     0.000   |b| =    10.000000
 CELL_TOP| Vector c [angstrom     0.000     0.000    10.000   |c| =    10.000000
 CELL_TOP| Angle (b,c), alpha [degree]:                                90.000000
 CELL_TOP| Angle (a,c), beta  [degree]:                                90.000000
 CELL_TOP| Angle (a,b), gamma [degree]:                                90.000000
 CELL_TOP| Numerically orthorhombic:                                         YES
 CELL_TOP| Periodicity                                                      NONE

 GENERATE|  Preliminary Number of Bonds generated:                             0
 GENERATE|  Achieved consistency in connectivity generation.

 CELL| Volume [angstrom^3]:                                          1000.000000
 CELL| Vector a [angstrom]:      10.000     0.000     0.000   |a| =    10.000000
 CELL| Vector b [angstrom]:       0.000    10.000     0.000   |b| =    10.000000
 CELL| Vector c [angstrom]:       0.000     0.000    10.000   |c| =    10.000000
 CELL| Angle (b,c), alpha [degree]:                                    90.000000
 CELL| Angle (a,c), beta  [degree]:                                    90.000000
 CELL| Angle (a,b), gamma [degree]:                                    90.000000
 CELL| Numerically orthorhombic:                                             YES
 CELL| Periodicity                                                          NONE

 CELL_REF| Volume [angstrom^3]:                                      1000.000000
 CELL_REF| Vector a [angstrom    10.000     0.000     0.000   |a| =    10.000000
 CELL_REF| Vector b [angstrom     0.000    10.000     0.000   |b| =    10.000000
 CELL_REF| Vector c [angstrom     0.000     0.000    10.000   |c| =    10.000000
 CELL_REF| Angle (b,c), alpha [degree]:                                90.000000
 CELL_REF| Angle (a,c), beta  [degree]:                                90.000000
 CELL_REF| Angle (a,b), gamma [degree]:                                90.000000
 CELL_REF| Numerically orthorhombic:                                         YES
 CELL_REF| Periodicity                                                      NONE

 *******************************************************************************
 *******************************************************************************
 **                                                                           **
 **     #####                         ##              ##                      **
 **    ##   ##            ##          ##              ##                      **
 **   ##     ##                       ##            ######                    **
 **   ##     ##  ##   ##  ##   #####  ##  ##   ####   ##    #####    #####    **
 **   ##     ##  ##   ##  ##  ##      ## ##   ##      ##   ##   ##  ##   ##   **
 **   ##  ## ##  ##   ##  ##  ##      ####     ###    ##   ######   ######    **
 **    ##  ###   ##   ##  ##  ##      ## ##      ##   ##   ##       ##        **
 **     #######   #####   ##   #####  ##  ##  ####    ##    #####   ##        **
 **           ##                                                    ##        **
 **                                                                           **
 **                                                ... make the atoms dance   **
 **                                                                           **
 **            Copyright (C) by CP2K developers group (2000-2024)             **
 **                      J. Chem. Phys. 152, 194103 (2020)                    **
 **                                                                           **
 *******************************************************************************

 *** WARNING in qs_environment.F:937 :: Low-scaling RPA requires        ***
 *** SORT_BASIS EXP keyword (in DFT input section) for good performance ***


 DFT| Spin restricted Kohn-Sham (RKS) calculation                            RKS
 DFT| Multiplicity                                                             1
 DFT| Number of spin states                                                    1
 DFT| Charge                                                                   0
 DFT| Self-interaction correction (SIC)                                       NO
 DFT| Cutoffs: density                                              1.000000E-10
 DFT|          gradient                                             1.000000E-10
 DFT|          tau                                                  1.000000E-10
 DFT|          cutoff_smoothing_range                               0.000000E+00
 DFT| XC density smoothing                                                  NONE
 DFT| XC derivatives                                                          PW

 FUNCTIONAL| PBE:
 FUNCTIONAL| J.P.Perdew, K.Burke, M.Ernzerhof, Phys. Rev. Letter, vol. 77, n 18,
 FUNCTIONAL|  pp. 3865-3868, (1996) {spin unpolarized}                          


 QS| Method:                                                                GAPW
 QS| Density plane wave grid type                        NON-SPHERICAL FULLSPACE
 QS| Number of grid levels:                                                    4
 QS| Density cutoff [a.u.]:                                                200.0
 QS| Multi grid cutoff [a.u.]: 1) grid level                               200.0
 QS|                           2) grid level                                66.7
 QS|                           3) grid level                                22.2
 QS|                           4) grid level                                 7.4
 QS| Grid level progression factor:                                          3.0
 QS| Relative density cutoff [a.u.]:                                        25.0
 QS| Interaction thresholds: eps_pgf_orb:                                1.0E-05
 QS|                         eps_filter_matrix:                          0.0E+00
 QS|                         eps_core_charge:                            1.0E-12
 QS|                         eps_rho_gspace:                             1.0E-10
 QS|                         eps_rho_rspace:                             1.0E-10
 QS|                         eps_gvg_rspace:                             1.0E-05
 QS|                         eps_ppl:                                    1.0E-02
 QS|                         eps_ppnl:                                   1.0E-07
 QS| GAPW|      One center basis from orbital basis primitives
 QS| GAPW|                   eps_fit:                                    1.0E-04
 QS| GAPW|                   eps_iso:                                    1.0E-12
 QS| GAPW|                   eps_svd:                                    1.0E-08
 QS| GAPW|                   eps_cpc:                                    1.0E-10
 QS| GAPW|   atom-r-grid: quadrature:                                     GC_LOG
 QS| GAPW|      atom-s-grid:  max l :                                          8
 QS| GAPW|      max_l_rho0 :                                                   2


 ATOMIC KIND INFORMATION

  1. Atomic kind: B                                     Number of atoms:       1

     Orbital Basis Set                                                 def2-QZVP

       Number of orbital shell sets:                                          17
       Number of orbital shells:                                              17
       Number of primitive Cartesian functions:                               29
       Number of Cartesian basis functions:                                   72
       Number of spherical basis functions:                                   57
       Norm type:                                                              2

       Normalised Cartesian orbitals:

                        Set   Shell   Orbital            Exponent    Coefficient

                          1       1    1s            46447.667056       0.160652
                                                      6957.688904       0.300649
                                                      1583.442840       0.519457
                                                       448.466010       0.844001
                                                       146.286393       1.287379
                                                        52.784386       1.803207
                                                        20.519396       2.183115
                                                         8.418566       2.086207

                          2       1    1s               36.510018       0.982622
                                                        10.541854       3.867338

                          3       1    1s                3.600409       1.862833

                          4       1    1s                1.561702       0.995655

                          5       1    1s                0.449974       0.391562

                          6       1    1s                0.180752       0.197571

                          7       1    1s                0.071597       0.098646

                          8       1    1px              72.240463       0.711083
                                                        16.807707       0.912991
                                                         5.225941       0.954933
                                                         1.850835       0.878667
                                                         0.722068       0.679455
                          8       1    1py              72.240463       0.711083
                                                        16.807707       0.912991
                                                         5.225941       0.954933
                                                         1.850835       0.878667
                                                         0.722068       0.679455
                          8       1    1pz              72.240463       0.711083
                                                        16.807707       0.912991
                                                         5.225941       0.954933
                                                         1.850835       0.878667
                                                         0.722068       0.679455

                          9       1    1px               0.294910       0.309779
                          9       1    1py               0.294910       0.309779
                          9       1    1pz               0.294910       0.309779

                         10       1    1px               0.122011       0.102788
                         10       1    1py               0.122011       0.102788
                         10       1    1pz               0.122011       0.102788

                         11       1    1px               0.049865       0.033588
                         11       1    1py               0.049865       0.033588
                         11       1    1pz               0.049865       0.033588

                         12       1    1dx2              1.110000       1.975717
                         12       1    1dxy              1.110000       3.422042
                         12       1    1dxz              1.110000       3.422042
                         12       1    1dy2              1.110000       1.975717
                         12       1    1dyz              1.110000       3.422042
                         12       1    1dz2              1.110000       1.975717

                         13       1    1dx2              0.402000       0.334045
                         13       1    1dxy              0.402000       0.578583
                         13       1    1dxz              0.402000       0.578583
                         13       1    1dy2              0.402000       0.334045
                         13       1    1dyz              0.402000       0.578583
                         13       1    1dz2              0.402000       0.334045

                         14       1    1dx2              0.145000       0.056079
                         14       1    1dxy              0.145000       0.097132
                         14       1    1dxz              0.145000       0.097132
                         14       1    1dy2              0.145000       0.056079
                         14       1    1dyz              0.145000       0.097132
                         14       1    1dz2              0.145000       0.056079

                         15       1    1fx3              0.882000       1.109836
                         15       1    1fx2y             0.882000       2.481669
                         15       1    1fx2z             0.882000       2.481669
                         15       1    1fxy2             0.882000       2.481669
                         15       1    1fxyz             0.882000       4.298376
                         15       1    1fxz2             0.882000       2.481669
                         15       1    1fy3              0.882000       1.109836
                         15       1    1fy2z             0.882000       2.481669
                         15       1    1fyz2             0.882000       2.481669
                         15       1    1fz3              0.882000       1.109836

                         16       1    1fx3              0.311000       0.106332
                         16       1    1fx2y             0.311000       0.237766
                         16       1    1fx2z             0.311000       0.237766
                         16       1    1fxy2             0.311000       0.237766
                         16       1    1fxyz             0.311000       0.411823
                         16       1    1fxz2             0.311000       0.237766
                         16       1    1fy3              0.311000       0.106332
                         16       1    1fy2z             0.311000       0.237766
                         16       1    1fyz2             0.311000       0.237766
                         16       1    1fz3              0.311000       0.106332

                         17       1    1gx4              0.673000       0.374522
                         17       1    1gx3y             0.673000       0.990891
                         17       1    1gx3z             0.673000       0.990891
                         17       1    1gx2y2            0.673000       1.279235
                         17       1    1gx2yz            0.673000       2.215700
                         17       1    1gx2z2            0.673000       1.279235
                         17       1    1gxy3             0.673000       0.990891
                         17       1    1gxy2z            0.673000       2.215700
                         17       1    1gxyz2            0.673000       2.215700
                         17       1    1gxz3             0.673000       0.990891
                         17       1    1gy4              0.673000       0.374522
                         17       1    1gy3z             0.673000       0.990891
                         17       1    1gy2z2            0.673000       1.279235
                         17       1    1gyz3             0.673000       0.990891
                         17       1    1gz4              0.673000       0.374522

     RI Auxiliary Basis Set                                                RI-5Z

       Number of orbital shell sets:                                          39
       Number of orbital shells:                                              39
       Number of primitive Cartesian functions:                               39
       Number of Cartesian basis functions:                                  287
       Number of spherical basis functions:                                  193
       Norm type:                                                              2

       Normalised Cartesian orbitals:

                        Set   Shell   Orbital            Exponent    Coefficient

                          1       1    1s              142.715000      29.428106

                          2       1    1s               34.757300      10.202218

                          3       1    1s                9.063320       3.722850

                          4       1    1s                4.124940       2.062877

                          5       1    1s                2.103280       1.244752

                          6       1    1s                1.043310       0.735733

                          7       1    1s                0.591867       0.480926

                          8       1    1s                0.387495       0.350034

                          9       1    1s                0.193579       0.207995

                         10       1    1s                0.100115       0.126848

                         11       1    1px              36.802300     129.206330
                         11       1    1py              36.802300     129.206330
                         11       1    1pz              36.802300     129.206330

                         12       1    1px               9.892560      25.007827
                         12       1    1py               9.892560      25.007827
                         12       1    1pz               9.892560      25.007827

                         13       1    1px               3.548920       6.943211
                         13       1    1py               3.548920       6.943211
                         13       1    1pz               3.548920       6.943211

                         14       1    1px               1.677110       2.720458
                         14       1    1py               1.677110       2.720458
                         14       1    1pz               1.677110       2.720458

                         15       1    1px               0.926420       1.295538
                         15       1    1py               0.926420       1.295538
                         15       1    1pz               0.926420       1.295538

                         16       1    1px               0.445473       0.518760
                         16       1    1py               0.445473       0.518760
                         16       1    1pz               0.445473       0.518760

                         17       1    1px               0.248681       0.250319
                         17       1    1py               0.248681       0.250319
                         17       1    1pz               0.248681       0.250319

                         18       1    1px               0.140195       0.122280
                         18       1    1py               0.140195       0.122280
                         18       1    1pz               0.140195       0.122280

                         19       1    1dx2             10.808500     106.047138
                         19       1    1dxy             10.808500     183.679031
                         19       1    1dxz             10.808500     183.679031
                         19       1    1dy2             10.808500     106.047138
                         19       1    1dyz             10.808500     183.679031
                         19       1    1dz2             10.808500     106.047138

                         20       1    1dx2              4.554610      23.372171
                         20       1    1dxy              4.554610      40.481787
                         20       1    1dxz              4.554610      40.481787
                         20       1    1dy2              4.554610      23.372171
                         20       1    1dyz              4.554610      40.481787
                         20       1    1dz2              4.554610      23.372171

                         21       1    1dx2              2.202870       6.556016
                         21       1    1dxy              2.202870      11.355352
                         21       1    1dxz              2.202870      11.355352
                         21       1    1dy2              2.202870       6.556016
                         21       1    1dyz              2.202870      11.355352
                         21       1    1dz2              2.202870       6.556016

                         22       1    1dx2              1.056650       1.812546
                         22       1    1dxy              1.056650       3.139421
                         22       1    1dxz              1.056650       3.139421
                         22       1    1dy2              1.056650       1.812546
                         22       1    1dyz              1.056650       3.139421
                         22       1    1dz2              1.056650       1.812546

                         23       1    1dx2              0.495164       0.481083
                         23       1    1dxy              0.495164       0.833261
                         23       1    1dxz              0.495164       0.833261
                         23       1    1dy2              0.495164       0.481083
                         23       1    1dyz              0.495164       0.833261
                         23       1    1dz2              0.495164       0.481083

                         24       1    1dx2              0.264649       0.160725
                         24       1    1dxy              0.264649       0.278383
                         24       1    1dxz              0.264649       0.278383
                         24       1    1dy2              0.264649       0.160725
                         24       1    1dyz              0.264649       0.278383
                         24       1    1dz2              0.264649       0.160725

                         25       1    1dx2              0.165073       0.070363
                         25       1    1dxy              0.165073       0.121872
                         25       1    1dxz              0.165073       0.121872
                         25       1    1dy2              0.165073       0.070363
                         25       1    1dyz              0.165073       0.121872
                         25       1    1dz2              0.165073       0.070363

                         26       1    1fx3              4.908970      52.805943
                         26       1    1fx2y             4.908970     118.077678
                         26       1    1fx2z             4.908970     118.077678
                         26       1    1fxy2             4.908970     118.077678
                         26       1    1fxyz             4.908970     204.516537
                         26       1    1fxz2             4.908970     118.077678
                         26       1    1fy3              4.908970      52.805943
                         26       1    1fy2z             4.908970     118.077678
                         26       1    1fyz2             4.908970     118.077678
                         26       1    1fz3              4.908970      52.805943

                         27       1    1fx3              2.483560      11.399149
                         27       1    1fx2y             2.483560      25.489272
                         27       1    1fx2z             2.483560      25.489272
                         27       1    1fxy2             2.483560      25.489272
                         27       1    1fxyz             2.483560      44.148714
                         27       1    1fxz2             2.483560      25.489272
                         27       1    1fy3              2.483560      11.399149
                         27       1    1fy2z             2.483560      25.489272
                         27       1    1fyz2             2.483560      25.489272
                         27       1    1fz3              2.483560      11.399149

                         28       1    1fx3              1.421170       3.246445
                         28       1    1fx2y             1.421170       7.259271
                         28       1    1fx2z             1.421170       7.259271
                         28       1    1fxy2             1.421170       7.259271
                         28       1    1fxyz             1.421170      12.573427
                         28       1    1fxz2             1.421170       7.259271
                         28       1    1fy3              1.421170       3.246445
                         28       1    1fy2z             1.421170       7.259271
                         28       1    1fyz2             1.421170       7.259271
                         28       1    1fz3              1.421170       3.246445

                         29       1    1fx3              0.724300       0.712477
                         29       1    1fx2y             0.724300       1.593148
                         29       1    1fx2z             0.724300       1.593148
                         29       1    1fxy2             0.724300       1.593148
                         29       1    1fxyz             0.724300       2.759413
                         29       1    1fxz2             0.724300       1.593148
                         29       1    1fy3              0.724300       0.712477
                         29       1    1fy2z             0.724300       1.593148
                         29       1    1fyz2             0.724300       1.593148
                         29       1    1fz3              0.724300       0.712477

                         30       1    1fx3              0.398860       0.186123
                         30       1    1fx2y             0.398860       0.416184
                         30       1    1fx2z             0.398860       0.416184
                         30       1    1fxy2             0.398860       0.416184
                         30       1    1fxyz             0.398860       0.720852
                         30       1    1fxz2             0.398860       0.416184
                         30       1    1fy3              0.398860       0.186123
                         30       1    1fy2z             0.398860       0.416184
                         30       1    1fyz2             0.398860       0.416184
                         30       1    1fz3              0.398860       0.186123

                         31       1    1fx3              0.242397       0.060693
                         31       1    1fx2y             0.242397       0.135714
                         31       1    1fx2z             0.242397       0.135714
                         31       1    1fxy2             0.242397       0.135714
                         31       1    1fxyz             0.242397       0.235064
                         31       1    1fxz2             0.242397       0.135714
                         31       1    1fy3              0.242397       0.060693
                         31       1    1fy2z             0.242397       0.135714
                         31       1    1fyz2             0.242397       0.135714
                         31       1    1fz3              0.242397       0.060693

                         32       1    1gx4              3.560170      36.557791
                         32       1    1gx3y             3.560170      96.722824
                         32       1    1gx3z             3.560170      96.722824
                         32       1    1gx2y2            3.560170     124.868629
                         32       1    1gx2yz            3.560170     216.278810
                         32       1    1gx2z2            3.560170     124.868629
                         32       1    1gxy3             3.560170      96.722824
                         32       1    1gxy2z            3.560170     216.278810
                         32       1    1gxyz2            3.560170     216.278810
                         32       1    1gxz3             3.560170      96.722824
                         32       1    1gy4              3.560170      36.557791
                         32       1    1gy3z             3.560170      96.722824
                         32       1    1gy2z2            3.560170     124.868629
                         32       1    1gyz3             3.560170      96.722824
                         32       1    1gz4              3.560170      36.557791

                         33       1    1gx4              1.364190       2.614215
                         33       1    1gx3y             1.364190       6.916563
                         33       1    1gx3z             1.364190       6.916563
                         33       1    1gx2y2            1.364190       8.929244
                         33       1    1gx2yz            1.364190      15.465904
                         33       1    1gx2z2            1.364190       8.929244
                         33       1    1gxy3             1.364190       6.916563
                         33       1    1gxy2z            1.364190      15.465904
                         33       1    1gxyz2            1.364190      15.465904
                         33       1    1gxz3             1.364190       6.916563
                         33       1    1gy4              1.364190       2.614215
                         33       1    1gy3z             1.364190       6.916563
                         33       1    1gy2z2            1.364190       8.929244
                         33       1    1gyz3             1.364190       6.916563
                         33       1    1gz4              1.364190       2.614215

                         34       1    1gx4              0.662307       0.358384
                         34       1    1gx3y             0.662307       0.948195
                         34       1    1gx3z             0.662307       0.948195
                         34       1    1gx2y2            0.662307       1.224114
                         34       1    1gx2yz            0.662307       2.120228
                         34       1    1gx2z2            0.662307       1.224114
                         34       1    1gxy3             0.662307       0.948195
                         34       1    1gxy2z            0.662307       2.120228
                         34       1    1gxyz2            0.662307       2.120228
                         34       1    1gxz3             0.662307       0.948195
                         34       1    1gy4              0.662307       0.358384
                         34       1    1gy3z             0.662307       0.948195
                         34       1    1gy2z2            0.662307       1.224114
                         34       1    1gyz3             0.662307       0.948195
                         34       1    1gz4              0.662307       0.358384

                         35       1    1gx4              0.393770       0.085773
                         35       1    1gx3y             0.393770       0.226935
                         35       1    1gx3z             0.393770       0.226935
                         35       1    1gx2y2            0.393770       0.292972
                         35       1    1gx2yz            0.393770       0.507442
                         35       1    1gx2z2            0.393770       0.292972
                         35       1    1gxy3             0.393770       0.226935
                         35       1    1gxy2z            0.393770       0.507442
                         35       1    1gxyz2            0.393770       0.507442
                         35       1    1gxz3             0.393770       0.226935
                         35       1    1gy4              0.393770       0.085773
                         35       1    1gy3z             0.393770       0.226935
                         35       1    1gy2z2            0.393770       0.292972
                         35       1    1gyz3             0.393770       0.226935
                         35       1    1gz4              0.393770       0.085773

                         36       1    1hx5              1.852370       5.501224
                         36       1    1hx4y             1.852370      16.503672
                         36       1    1hx4z             1.852370      16.503672
                         36       1    1hx3y2            1.852370      25.209775
                         36       1    1hx3yz            1.852370      43.664611
                         36       1    1hx3z2            1.852370      25.209775
                         36       1    1hx2y3            1.852370      25.209775
                         36       1    1hx2y2z           1.852370      56.370770
                         36       1    1hx2yz2           1.852370      56.370770
                         36       1    1hx2z3            1.852370      25.209775
                         36       1    1hxy4             1.852370      16.503672
                         36       1    1hxy3z            1.852370      43.664611
                         36       1    1hxy2z2           1.852370      56.370770
                         36       1    1hxyz3            1.852370      43.664611
                         36       1    1hxz4             1.852370      16.503672
                         36       1    1hy5              1.852370       5.501224
                         36       1    1hy4z             1.852370      16.503672
                         36       1    1hy3z2            1.852370      25.209775
                         36       1    1hy2z3            1.852370      25.209775
                         36       1    1hyz4             1.852370      16.503672
                         36       1    1hz5              1.852370       5.501224

                         37       1    1hx5              0.994333       0.728321
                         37       1    1hx4y             0.994333       2.184962
                         37       1    1hx4z             0.994333       2.184962
                         37       1    1hx3y2            0.994333       3.337585
                         37       1    1hx3yz            0.994333       5.780867
                         37       1    1hx3z2            0.994333       3.337585
                         37       1    1hx2y3            0.994333       3.337585
                         37       1    1hx2y2z           0.994333       7.463067
                         37       1    1hx2yz2           0.994333       7.463067
                         37       1    1hx2z3            0.994333       3.337585
                         37       1    1hxy4             0.994333       2.184962
                         37       1    1hxy3z            0.994333       5.780867
                         37       1    1hxy2z2           0.994333       7.463067
                         37       1    1hxyz3            0.994333       5.780867
                         37       1    1hxz4             0.994333       2.184962
                         37       1    1hy5              0.994333       0.728321
                         37       1    1hy4z             0.994333       2.184962
                         37       1    1hy3z2            0.994333       3.337585
                         37       1    1hy2z3            0.994333       3.337585
                         37       1    1hyz4             0.994333       2.184962
                         37       1    1hz5              0.994333       0.728321

                         38       1    1hx5              0.625900       0.161803
                         38       1    1hx4y             0.625900       0.485408
                         38       1    1hx4z             0.625900       0.485408
                         38       1    1hx3y2            0.625900       0.741472
                         38       1    1hx3yz            0.625900       1.284268
                         38       1    1hx3z2            0.625900       0.741472
                         38       1    1hx2y3            0.625900       0.741472
                         38       1    1hx2y2z           0.625900       1.657982
                         38       1    1hx2yz2           0.625900       1.657982
                         38       1    1hx2z3            0.625900       0.741472
                         38       1    1hxy4             0.625900       0.485408
                         38       1    1hxy3z            0.625900       1.284268
                         38       1    1hxy2z2           0.625900       1.657982
                         38       1    1hxyz3            0.625900       1.284268
                         38       1    1hxz4             0.625900       0.485408
                         38       1    1hy5              0.625900       0.161803
                         38       1    1hy4z             0.625900       0.485408
                         38       1    1hy3z2            0.625900       0.741472
                         38       1    1hy2z3            0.625900       0.741472
                         38       1    1hyz4             0.625900       0.485408
                         38       1    1hz5              0.625900       0.161803

                         39       1    1ix6              1.130180       0.707915
                         39       1    1ix5y             1.130180       2.347890
                         39       1    1ix5z             1.130180       2.347890
                         39       1    1ix4y2            1.130180       4.066665
                         39       1    1ix4yz            1.130180       7.043670
                         39       1    1ix4z2            1.130180       4.066665
                         39       1    1ix3y3            1.130180       4.811742
                         39       1    1ix3y2z           1.130180      10.759383
                         39       1    1ix3yz2           1.130180      10.759383
                         39       1    1ix3z3            1.130180       4.811742
                         39       1    1ix2y4            1.130180       4.066665
                         39       1    1ix2y3z           1.130180      10.759383
                         39       1    1ix2y2z2          1.130180      13.890304
                         39       1    1ix2yz3           1.130180      10.759383
                         39       1    1ix2z4            1.130180       4.066665
                         39       1    1ixy5             1.130180       2.347890
                         39       1    1ixy4z            1.130180       7.043670
                         39       1    1ixy3z2           1.130180      10.759383
                         39       1    1ixy2z3           1.130180      10.759383
                         39       1    1ixyz4            1.130180       7.043670
                         39       1    1ixz5             1.130180       2.347890
                         39       1    1iy6              1.130180       0.707915
                         39       1    1iy5z             1.130180       2.347890
                         39       1    1iy4z2            1.130180       4.066665
                         39       1    1iy3z3            1.130180       4.811742
                         39       1    1iy2z4            1.130180       4.066665
                         39       1    1iyz5             1.130180       2.347890
                         39       1    1iz6              1.130180       0.707915

       Atomic covalent radius [Angstrom]:                                  0.820

       Atomic van der Waals radius [Angstrom]:                             1.920

     The atoms of this atomic kind are PAW atoms (GAPW):
       Hard Gaussian function radius:                                      1.512
       Rho0 radius:                                                        1.512
       Maximum GTO radius used for PAW projector construction:            24.566

     GAPW Soft Basis Set                                          def2-QZVP_soft

       Number of orbital shell sets:                                          17
       Number of orbital shells:                                              17
       Number of primitive Cartesian functions:                               16
       Number of Cartesian basis functions:                                   72
       Number of spherical basis functions:                                   57
       Norm type:                                                              2

       Normalised Cartesian orbitals:

                        Set   Shell   Orbital            Exponent    Coefficient

                          1       1    1s         

                          2       1    1s         

                          3       1    1s                3.600409       1.862833

                          4       1    1s                1.561702       0.995655

                          5       1    1s                0.449974       0.391562

                          6       1    1s                0.180752       0.197571

                          7       1    1s                0.071597       0.098646

                          8       1    1px               1.850835       0.878667
                                                         0.722068       0.679455
                          8       1    1py               1.850835       0.878667
                                                         0.722068       0.679455
                          8       1    1pz               1.850835       0.878667
                                                         0.722068       0.679455

                          9       1    1px               0.294910       0.309779
                          9       1    1py               0.294910       0.309779
                          9       1    1pz               0.294910       0.309779

                         10       1    1px               0.122011       0.102788
                         10       1    1py               0.122011       0.102788
                         10       1    1pz               0.122011       0.102788

                         11       1    1px               0.049865       0.033588
                         11       1    1py               0.049865       0.033588
                         11       1    1pz               0.049865       0.033588

                         12       1    1dx2              1.110000       1.975717
                         12       1    1dxy              1.110000       3.422042
                         12       1    1dxz              1.110000       3.422042
                         12       1    1dy2              1.110000       1.975717
                         12       1    1dyz              1.110000       3.422042
                         12       1    1dz2              1.110000       1.975717

                         13       1    1dx2              0.402000       0.334045
                         13       1    1dxy              0.402000       0.578583
                         13       1    1dxz              0.402000       0.578583
                         13       1    1dy2              0.402000       0.334045
                         13       1    1dyz              0.402000       0.578583
                         13       1    1dz2              0.402000       0.334045

                         14       1    1dx2              0.145000       0.056079
                         14       1    1dxy              0.145000       0.097132
                         14       1    1dxz              0.145000       0.097132
                         14       1    1dy2              0.145000       0.056079
                         14       1    1dyz              0.145000       0.097132
                         14       1    1dz2              0.145000       0.056079

                         15       1    1fx3              0.882000       1.109836
                         15       1    1fx2y             0.882000       2.481669
                         15       1    1fx2z             0.882000       2.481669
                         15       1    1fxy2             0.882000       2.481669
                         15       1    1fxyz             0.882000       4.298376
                         15       1    1fxz2             0.882000       2.481669
                         15       1    1fy3              0.882000       1.109836
                         15       1    1fy2z             0.882000       2.481669
                         15       1    1fyz2             0.882000       2.481669
                         15       1    1fz3              0.882000       1.109836

                         16       1    1fx3              0.311000       0.106332
                         16       1    1fx2y             0.311000       0.237766
                         16       1    1fx2z             0.311000       0.237766
                         16       1    1fxy2             0.311000       0.237766
                         16       1    1fxyz             0.311000       0.411823
                         16       1    1fxz2             0.311000       0.237766
                         16       1    1fy3              0.311000       0.106332
                         16       1    1fy2z             0.311000       0.237766
                         16       1    1fyz2             0.311000       0.237766
                         16       1    1fz3              0.311000       0.106332

                         17       1    1gx4              0.673000       0.374522
                         17       1    1gx3y             0.673000       0.990891
                         17       1    1gx3z             0.673000       0.990891
                         17       1    1gx2y2            0.673000       1.279235
                         17       1    1gx2yz            0.673000       2.215700
                         17       1    1gx2z2            0.673000       1.279235
                         17       1    1gxy3             0.673000       0.990891
                         17       1    1gxy2z            0.673000       2.215700
                         17       1    1gxyz2            0.673000       2.215700
                         17       1    1gxz3             0.673000       0.990891
                         17       1    1gy4              0.673000       0.374522
                         17       1    1gy3z             0.673000       0.990891
                         17       1    1gy2z2            0.673000       1.279235
                         17       1    1gyz3             0.673000       0.990891
                         17       1    1gz4              0.673000       0.374522

     AE Potential information for                                            ALL

       Description:                                       All-electron potential
                                          Krack, Parrinello, PCCP 2, 2105 (2000)

       Gaussian exponent of the core charge distribution:               2.655410
       Electronic configuration (s p d ...):                           4   1   0

  2. Atomic kind: N                                     Number of atoms:       1

     Orbital Basis Set                                                 def2-QZVP

       Number of orbital shell sets:                                          17
       Number of orbital shells:                                              17
       Number of primitive Cartesian functions:                               29
       Number of Cartesian basis functions:                                   72
       Number of spherical basis functions:                                   57
       Norm type:                                                              2

       Normalised Cartesian orbitals:

                        Set   Shell   Orbital            Exponent    Coefficient

                          1       1    1s            90726.889210       0.264461
                                                     13590.528801       0.494937
                                                      3092.988378       0.855170
                                                       875.998764       1.389874
                                                       285.744700       2.121698
                                                       103.119134       2.979703
                                                        40.128557       3.622800
                                                        16.528096       3.451840

                          2       1    1s               69.390961       1.621997
                                                        20.428201       6.338076

                          3       1    1s                7.129259       3.109520

                          4       1    1s                3.132430       1.678113

                          5       1    1s                0.987558       0.706044

                          6       1    1s                0.387657       0.350143

                          7       1    1s                0.149099       0.171008

                          8       1    1px             150.057427      -1.834160
                                                        35.491599      -2.406167
                                                        11.247864      -2.652970
                                                         4.090031      -2.482665
                                                         1.622057      -1.818128
                          8       1    1py             150.057427      -1.834160
                                                        35.491599      -2.406167
                                                        11.247864      -2.652970
                                                         4.090031      -2.482665
                                                         1.622057      -1.818128
                          8       1    1pz             150.057427      -1.834160
                                                        35.491599      -2.406167
                                                        11.247864      -2.652970
                                                         4.090031      -2.482665
                                                         1.622057      -1.818128

                          9       1    1px               0.664423       0.855058
                          9       1    1py               0.664423       0.855058
                          9       1    1pz               0.664423       0.855058

                         10       1    1px               0.270998       0.278706
                         10       1    1py               0.270998       0.278706
                         10       1    1pz               0.270998       0.278706

                         11       1    1px               0.106887       0.087116
                         11       1    1py               0.106887       0.087116
                         11       1    1pz               0.106887       0.087116

                         12       1    1dx2              2.837000      10.207357
                         12       1    1dxy              2.837000      17.679661
                         12       1    1dxz              2.837000      17.679661
                         12       1    1dy2              2.837000      10.207357
                         12       1    1dyz              2.837000      17.679661
                         12       1    1dz2              2.837000      10.207357

                         13       1    1dx2              0.968000       1.554860
                         13       1    1dxy              0.968000       2.693097
                         13       1    1dxz              0.968000       2.693097
                         13       1    1dy2              0.968000       1.554860
                         13       1    1dyz              0.968000       2.693097
                         13       1    1dz2              0.968000       1.554860

                         14       1    1dx2              0.335000       0.242794
                         14       1    1dxy              0.335000       0.420531
                         14       1    1dxz              0.335000       0.420531
                         14       1    1dy2              0.335000       0.242794
                         14       1    1dyz              0.335000       0.420531
                         14       1    1dz2              0.335000       0.242794

                         15       1    1fx3              2.027000       7.217310
                         15       1    1fx2y             2.027000      16.138397
                         15       1    1fx2z             2.027000      16.138397
                         15       1    1fxy2             2.027000      16.138397
                         15       1    1fxyz             2.027000      27.952523
                         15       1    1fxz2             2.027000      16.138397
                         15       1    1fy3              2.027000       7.217310
                         15       1    1fy2z             2.027000      16.138397
                         15       1    1fyz2             2.027000      16.138397
                         15       1    1fz3              2.027000       7.217310

                         16       1    1fx3              0.685000       0.628432
                         16       1    1fx2y             0.685000       1.405216
                         16       1    1fx2z             0.685000       1.405216
                         16       1    1fxy2             0.685000       1.405216
                         16       1    1fxyz             0.685000       2.433906
                         16       1    1fxz2             0.685000       1.405216
                         16       1    1fy3              0.685000       0.628432
                         16       1    1fy2z             0.685000       1.405216
                         16       1    1fyz2             0.685000       1.405216
                         16       1    1fz3              0.685000       0.628432

                         17       1    1gx4              1.427000       2.958703
                         17       1    1gx3y             1.427000       7.827992
                         17       1    1gx3z             1.427000       7.827992
                         17       1    1gx2y2            1.427000      10.105894
                         17       1    1gx2yz            1.427000      17.503922
                         17       1    1gx2z2            1.427000      10.105894
                         17       1    1gxy3             1.427000       7.827992
                         17       1    1gxy2z            1.427000      17.503922
                         17       1    1gxyz2            1.427000      17.503922
                         17       1    1gxz3             1.427000       7.827992
                         17       1    1gy4              1.427000       2.958703
                         17       1    1gy3z             1.427000       7.827992
                         17       1    1gy2z2            1.427000      10.105894
                         17       1    1gyz3             1.427000       7.827992
                         17       1    1gz4              1.427000       2.958703

     RI Auxiliary Basis Set                                                RI-5Z

       Number of orbital shell sets:                                          39
       Number of orbital shells:                                              39
       Number of primitive Cartesian functions:                               39
       Number of Cartesian basis functions:                                  287
       Number of spherical basis functions:                                  193
       Norm type:                                                              2

       Normalised Cartesian orbitals:

                        Set   Shell   Orbital            Exponent    Coefficient

                          1       1    1s              330.814000      55.283815

                          2       1    1s               72.692500      17.743010

                          3       1    1s               18.515300       6.361480

                          4       1    1s                8.569100       3.569534

                          5       1    1s                3.809660       1.943456

                          6       1    1s                2.248340       1.308599

                          7       1    1s                1.312410       0.873901

                          8       1    1s                0.758637       0.579343

                          9       1    1s                0.378879       0.344180

                         10       1    1s                0.175888       0.193570

                         11       1    1px              66.987000     273.167010
                         11       1    1py              66.987000     273.167010
                         11       1    1pz              66.987000     273.167010

                         12       1    1px              18.749800      55.614225
                         12       1    1py              18.749800      55.614225
                         12       1    1pz              18.749800      55.614225

                         13       1    1px               7.480640      17.634515
                         13       1    1py               7.480640      17.634515
                         13       1    1pz               7.480640      17.634515

                         14       1    1px               3.761240       7.466274
                         14       1    1py               3.761240       7.466274
                         14       1    1pz               3.761240       7.466274

                         15       1    1px               2.075610       3.551177
                         15       1    1py               2.075610       3.551177
                         15       1    1pz               2.075610       3.551177

                         16       1    1px               0.990652       1.408775
                         16       1    1py               0.990652       1.408775
                         16       1    1pz               0.990652       1.408775

                         17       1    1px               0.519429       0.628562
                         17       1    1py               0.519429       0.628562
                         17       1    1pz               0.519429       0.628562

                         18       1    1px               0.311991       0.332367
                         18       1    1py               0.311991       0.332367
                         18       1    1pz               0.311991       0.332367

                         19       1    1dx2             17.120900     237.181597
                         19       1    1dxy             17.120900     410.810577
                         19       1    1dxz             17.120900     410.810577
                         19       1    1dy2             17.120900     237.181597
                         19       1    1dyz             17.120900     410.810577
                         19       1    1dz2             17.120900     237.181597

                         20       1    1dx2              5.810520      35.791979
                         20       1    1dxy              5.810520      61.993525
                         20       1    1dxz              5.810520      61.993525
                         20       1    1dy2              5.810520      35.791979
                         20       1    1dyz              5.810520      61.993525
                         20       1    1dz2              5.810520      35.791979

                         21       1    1dx2              3.550630      15.116246
                         21       1    1dxy              3.550630      26.182105
                         21       1    1dxz              3.550630      26.182105
                         21       1    1dy2              3.550630      15.116246
                         21       1    1dyz              3.550630      26.182105
                         21       1    1dz2              3.550630      15.116246

                         22       1    1dx2              2.262180       6.868027
                         22       1    1dxy              2.262180      11.895771
                         22       1    1dxz              2.262180      11.895771
                         22       1    1dy2              2.262180       6.868027
                         22       1    1dyz              2.262180      11.895771
                         22       1    1dz2              2.262180       6.868027

                         23       1    1dx2              1.105370       1.961317
                         23       1    1dxy              1.105370       3.397101
                         23       1    1dxz              1.105370       3.397101
                         23       1    1dy2              1.105370       1.961317
                         23       1    1dyz              1.105370       3.397101
                         23       1    1dz2              1.105370       1.961317

                         24       1    1dx2              0.568580       0.612766
                         24       1    1dxy              0.568580       1.061342
                         24       1    1dxz              0.568580       1.061342
                         24       1    1dy2              0.568580       0.612766
                         24       1    1dyz              0.568580       1.061342
                         24       1    1dz2              0.568580       0.612766

                         25       1    1dx2              0.281938       0.179547
                         25       1    1dxy              0.281938       0.310985
                         25       1    1dxz              0.281938       0.310985
                         25       1    1dy2              0.281938       0.179547
                         25       1    1dyz              0.281938       0.310985
                         25       1    1dz2              0.281938       0.179547

                         26       1    1fx3             10.195600     273.453335
                         26       1    1fx2y            10.195600     611.460245
                         26       1    1fx2z            10.195600     611.460245
                         26       1    1fxy2            10.195600     611.460245
                         26       1    1fxyz            10.195600    1059.080212
                         26       1    1fxz2            10.195600     611.460245
                         26       1    1fy3             10.195600     273.453335
                         26       1    1fy2z            10.195600     611.460245
                         26       1    1fyz2            10.195600     611.460245
                         26       1    1fz3             10.195600     273.453335

                         27       1    1fx3              4.611490      45.877243
                         27       1    1fx2y             4.611490     102.584634
                         27       1    1fx2z             4.611490     102.584634
                         27       1    1fxy2             4.611490     102.584634
                         27       1    1fxyz             4.611490     177.681798
                         27       1    1fxz2             4.611490     102.584634
                         27       1    1fy3              4.611490      45.877243
                         27       1    1fy2z             4.611490     102.584634
                         27       1    1fyz2             4.611490     102.584634
                         27       1    1fz3              4.611490      45.877243

                         28       1    1fx3              2.818460      15.152391
                         28       1    1fx2y             2.818460      33.881776
                         28       1    1fx2z             2.818460      33.881776
                         28       1    1fxy2             2.818460      33.881776
                         28       1    1fxyz             2.818460      58.684958
                         28       1    1fxz2             2.818460      33.881776
                         28       1    1fy3              2.818460      15.152391
                         28       1    1fy2z             2.818460      33.881776
                         28       1    1fyz2             2.818460      33.881776
                         28       1    1fz3              2.818460      15.152391

                         29       1    1fx3              1.544330       3.913990
                         29       1    1fx2y             1.544330       8.751947
                         29       1    1fx2z             1.544330       8.751947
                         29       1    1fxy2             1.544330       8.751947
                         29       1    1fxyz             1.544330      15.158817
                         29       1    1fxz2             1.544330       8.751947
                         29       1    1fy3              1.544330       3.913990
                         29       1    1fy2z             1.544330       8.751947
                         29       1    1fyz2             1.544330       8.751947
                         29       1    1fz3              1.544330       3.913990

                         30       1    1fx3              0.895075       1.147197
                         30       1    1fx2y             0.895075       2.565211
                         30       1    1fx2z             0.895075       2.565211
                         30       1    1fxy2             0.895075       2.565211
                         30       1    1fxyz             0.895075       4.443076
                         30       1    1fxz2             0.895075       2.565211
                         30       1    1fy3              0.895075       1.147197
                         30       1    1fy2z             0.895075       2.565211
                         30       1    1fyz2             0.895075       2.565211
                         30       1    1fz3              0.895075       1.147197

                         31       1    1fx3              0.470440       0.269829
                         31       1    1fx2y             0.470440       0.603356
                         31       1    1fx2z             0.470440       0.603356
                         31       1    1fxy2             0.470440       0.603356
                         31       1    1fxyz             0.470440       1.045044
                         31       1    1fxz2             0.470440       0.603356
                         31       1    1fy3              0.470440       0.269829
                         31       1    1fy2z             0.470440       0.603356
                         31       1    1fyz2             0.470440       0.603356
                         31       1    1fz3              0.470440       0.269829

                         32       1    1gx4              5.478920     119.631780
                         32       1    1gx3y             5.478920     316.515938
                         32       1    1gx3z             5.478920     316.515938
                         32       1    1gx2y2            5.478920     408.620318
                         32       1    1gx2yz            5.478920     707.751152
                         32       1    1gx2z2            5.478920     408.620318
                         32       1    1gxy3             5.478920     316.515938
                         32       1    1gxy2z            5.478920     707.751152
                         32       1    1gxyz2            5.478920     707.751152
                         32       1    1gxz3             5.478920     316.515938
                         32       1    1gy4              5.478920     119.631780
                         32       1    1gy3z             5.478920     316.515938
                         32       1    1gy2z2            5.478920     408.620318
                         32       1    1gyz3             5.478920     316.515938
                         32       1    1gz4              5.478920     119.631780

                         33       1    1gx4              3.053470      23.967238
                         33       1    1gx3y             3.053470      63.411351
                         33       1    1gx3z             3.053470      63.411351
                         33       1    1gx2y2            3.053470      81.863702
                         33       1    1gx2yz            3.053470     141.792090
                         33       1    1gx2z2            3.053470      81.863702
                         33       1    1gxy3             3.053470      63.411351
                         33       1    1gxy2z            3.053470     141.792090
                         33       1    1gxyz2            3.053470     141.792090
                         33       1    1gxz3             3.053470      63.411351
                         33       1    1gy4              3.053470      23.967238
                         33       1    1gy3z             3.053470      63.411351
                         33       1    1gy2z2            3.053470      81.863702
                         33       1    1gyz3             3.053470      63.411351
                         33       1    1gz4              3.053470      23.967238

                         34       1    1gx4              1.482770       3.287671
                         34       1    1gx3y             1.482770       8.698360
                         34       1    1gx3z             1.482770       8.698360
                         34       1    1gx2y2            1.482770      11.229534
                         34       1    1gx2yz            1.482770      19.450124
                         34       1    1gx2z2            1.482770      11.229534
                         34       1    1gxy3             1.482770       8.698360
                         34       1    1gxy2z            1.482770      19.450124
                         34       1    1gxyz2            1.482770      19.450124
                         34       1    1gxz3             1.482770       8.698360
                         34       1    1gy4              1.482770       3.287671
                         34       1    1gy3z             1.482770       8.698360
                         34       1    1gy2z2            1.482770      11.229534
                         34       1    1gyz3             1.482770       8.698360
                         34       1    1gz4              1.482770       3.287671

                         35       1    1gx4              0.844875       0.700027
                         35       1    1gx3y             0.844875       1.852097
                         35       1    1gx3z             0.844875       1.852097
                         35       1    1gx2y2            0.844875       2.391047
                         35       1    1gx2yz            0.844875       4.141415
                         35       1    1gx2z2            0.844875       2.391047
                         35       1    1gxy3             0.844875       1.852097
                         35       1    1gxy2z            0.844875       4.141415
[...]
  
  ------------------------------------------------------------------------------

  Total RI-RPA Time=                                                   30.206923


 ENERGY| Total FORCE_EVAL ( QS ) energy [a.u.]:              -79.325624220157678

 -------------------------------------------------------------------------------
 -                                                                             -
 -                                DBCSR STATISTICS                             -
 -                                                                             -
 -------------------------------------------------------------------------------
 COUNTER                                    TOTAL       BLAS       SMM       ACC
 flops    57 x     6 x    57               155952       0.0%    100.0%      0.0%
 flops    57 x    57 x     6               467856       0.0%    100.0%      0.0%
 flops    57 x    57 x    57              1481544       0.0%    100.0%      0.0%
 flops   114 x   114 x   114              2963088       0.0%    100.0%      0.0%
 flops   193 x   193 x   193           3450747360       0.0%    100.0%      0.0%
 flops inhomo. stacks                           0       0.0%      0.0%      0.0%
 flops total                         3.455816E+09       0.0%    100.0%      0.0%
 flops max/rank                      3.455816E+09       0.0%    100.0%      0.0%
 matmuls inhomo. stacks                         0       0.0%      0.0%      0.0%
 matmuls total                                261       0.0%    100.0%      0.0%
 number of processed stacks                    37       0.0%    100.0%      0.0%
 average stack size                                     0.0       7.1       0.0
 marketing flops                     3.452359E+09
 -------------------------------------------------------------------------------
 # multiplications                             37
 max memory usage/rank               1.973002E+09
 # max total images/rank                        1
 # max 3D layers                                1
 # MPI messages exchanged                       0
 -------------------------------------------------------------------------------
 -                                                                             -
 -                      DBCSR MESSAGE PASSING PERFORMANCE                      -
 -                                                                             -
 -------------------------------------------------------------------------------
 ROUTINE             CALLS      AVE VOLUME [Bytes]
 MP_Bcast                6                     12.
 MP_Allreduce          191                     10.
 MP_Alltoall          1670                 303429.
 MP_ISend              148                     75.
 MP_IRecv              148                     75.
 -------------------------------------------------------------------------------

 -------------------------------------------------------------------------------
 -                                                                             -
 -                                DBM STATISTICS                               -
 -                                                                             -
 -------------------------------------------------------------------------------
    M  x    N  x    K                                          COUNT     PERCENT
    ?  x    ?  x   ??                                       20142070      40.07%
   ??  x    ?  x    ?                                       16482579      32.79%
    ?  x   ??  x   ??                                        3583036       7.13%
   ??  x    ?  x   ??                                        3484695       6.93%
    ?  x    ?  x    ?                                        3330646       6.63%
    ?  x   ??  x    ?                                        1140240       2.27%
    ?  x  ???  x    ?                                        1052160       2.09%
   ??  x   ??  x   ??                                         618376       1.23%
  ???  x    ?  x    ?                                         128109       0.25%
   ??  x   ??  x    ?                                         110400       0.22%
    ?  x  ???  x   ??                                          88320       0.18%
   ??  x  ???  x    ?                                          88320       0.18%
   ??  x  ???  x   ??                                          15360       0.03%
 -------------------------------------------------------------------------------

 -------------------------------------------------------------------------------
 -                                                                             -
 -                                GRID STATISTICS                              -
 -                                                                             -
 -------------------------------------------------------------------------------
 LP    KERNEL             BACKEND                              COUNT     PERCENT
 2     collocate ortho    CPU                                    624      10.78%
 2     integrate ortho    CPU                                    624      10.78%
 3     collocate ortho    CPU                                    576       9.95%
 3     integrate ortho    CPU                                    576       9.95%
 1     collocate ortho    CPU                                    540       9.33%
 1     integrate ortho    CPU                                    540       9.33%
 4     collocate ortho    CPU                                    456       7.88%
 4     integrate ortho    CPU                                    456       7.88%
 5     collocate ortho    CPU                                    264       4.56%
 5     integrate ortho    CPU                                    264       4.56%
 0     collocate ortho    CPU                                    244       4.22%
 0     integrate ortho    CPU                                    244       4.22%
 6     collocate ortho    CPU                                    120       2.07%
 6     integrate ortho    CPU                                    120       2.07%
 7     collocate ortho    CPU                                     48       0.83%
 7     integrate ortho    CPU                                     48       0.83%
 8     collocate ortho    CPU                                     12       0.21%
 8     integrate ortho    CPU                                     12       0.21%
 2     collocate general  CPU                                      8       0.14%
 2     integrate general  CPU                                      8       0.14%
 0     collocate general  CPU                                      2       0.03%
 0     integrate general  CPU                                      2       0.03%
 -------------------------------------------------------------------------------

 MEMORY| Estimated peak process memory [MiB]                                1959

 -------------------------------------------------------------------------------
 ----                             MULTIGRID INFO                            ----
 -------------------------------------------------------------------------------
 count for grid        1:          11207          cutoff [a.u.]          200.00
 count for grid        2:           2155          cutoff [a.u.]           66.67
 count for grid        3:           1094          cutoff [a.u.]           22.22
 count for grid        4:            268          cutoff [a.u.]            7.41
 total gridlevel count  :          14724

 -------------------------------------------------------------------------------
 -                                                                             -
 -                         MESSAGE PASSING PERFORMANCE                         -
 -                                                                             -
 -------------------------------------------------------------------------------

 ROUTINE             CALLS      AVE VOLUME [Bytes]
 MP_Group             2229
 MP_Bcast              842                   6769.
 MP_Allreduce         2610                   1298.
 MP_Sync              3557
 MP_Alltoall           618                     14.
 MP_Wait                10
 MP_comm_split         794
 MP_ISend               14                 170287.
 MP_IRecv               14                 170287.
 -------------------------------------------------------------------------------


 -------------------------------------------------------------------------------
 -                                                                             -
 -                           R E F E R E N C E S                               -
 -                                                                             -
 -------------------------------------------------------------------------------
 
 CP2K version 2024.1 (Development Version), the CP2K developers group (2024).
 CP2K is freely available from https://www.cp2k.org/ .

 Kuehne,Thomas D.; Iannuzzi,Marcella; Del Ben,Mauro;
 Rybkin,Vladimir V.; Seewald,Patrick; Stein,Frederick; Laino,Teodoro;
 Khaliullin,Rustam Z.; Schuett,Ole; Schiffmann,Florian; Golze,Dorothea;
 Wilhelm,Jan; Chulkov,Sergey; Bani-Hashemian,Mohammad Hossein;
 Weber,Valery; Borstnik,Urban; Taillefumier,Mathieu;
 Jakobovits,Alice Shoshana; Lazzaro,Alfio; Pabst,Hans; Mueller,Tiziano;
 Schade,Robert; Guidon,Manuel; Andermatt,Samuel; Holmberg,Nico;
 Schenter,Gregory K.; Hehn,Anna; Bussy,Augustin; Belleflamme,Fabian;
 Tabacchi,Gloria; Gloess,Andreas; Lass,Michael; Bethune,Iain;
 Mundy,Christopher J.; Plessl,Christian; Watkins,Matt;
 VandeVondele,Joost; Krack,Matthias; Hutter,Juerg. 
 The Journal of Chemical Physics, 152 (19), (2020). 
 CP2K: An electronic structure and molecular dynamics software package -
 Quickstep: Efficient and accurate electronic structure calculations.
 https://doi.org/10.1063/5.0007045

 Wilhelm, J; Golze, D; Talirz, L; Hutter, J; Pignedoli, CA. 
 JOURNAL OF PHYSICAL CHEMISTRY LETTERS, 9, 306-312 (2018). 
 Toward GW calculations on thousands of atoms.
 https://doi.org/10.1021/acs.jpclett.7b02740

 Wilhelm, J; Hutter, J. PHYSICAL REVIEW B, 95, 235123 (2017). 
 Periodic GW calculations in the Gaussian and plane-waves scheme.
 https://doi.org/10.1103/PhysRevB.95.235123

 Wilhelm, J; Del Ben, M; Hutter, J. 
 JOURNAL OF CHEMICAL THEORY AND COMPUTATION, 12, 3623-3635 (2016). 
 GW in the Gaussian and plane waves scheme with application to linear acenes.
 https://doi.org/10.1021/acs.jctc.6b00380

 Wilhelm, J; Seewald, P; Del Ben, M; Hutter, J. 
 JOURNAL OF CHEMICAL THEORY AND COMPUTATION, 12, 5851-5859 (2016). 
 Large-Scale Cubic-Scaling Random Phase Approximation Correlation.
 https://doi.org/10.1021/acs.jctc.6b00840

 Schuett, Ole; Messmer, Peter; Hutter, Juerg; VandeVondele, Joost. 
 Electronic Structure Calculations on Graphics Processing Units, John
 Wiley & Sons, Ltd, 173-190 (2016). 
 GPU-Accelerated Sparse Matrix-Matrix Multiplication for
 Linear Scaling Density Functional Theory.
 https://doi.org/10.1002/9781118670712.ch8

 Heinecke, A; Henry, G; Hutchinson, M; Pabst, H. 
 Proceedings of Intl. Supercomputing Conference, 981-991 (2016). 
 LIBXSMM: Accelerating Small Matrix Multiplications
 by Runtime Code Generation.
 https://doi.org/10.1109/SC.2016.83

 Del Ben, M; Schuett, O; Wentz, T; Messmer, P; Hutter, J;
 VandeVondele, J. 
 COMPUTER PHYSICS COMMUNICATIONS, 187, 120-129 (2015). 
 Enabling simulation at the fifth rung of DFT: Large scale RPA
 calculations with excellent time to solution.
 https://doi.org/10.1016/j.cpc.2014.10.021

 Borstnik, U; VandeVondele, J; Weber, V; Hutter, J. 
 PARALLEL COMPUTING, 40 (5-6), 47-58 (2014). 
 Sparse matrix multiplication: The distributed block-compressed sparse
 row library.
 https://doi.org/10.1016/j.parco.2014.03.012

 Hutter, J; Iannuzzi, M; Schiffmann, F; VandeVondele, J. 
 WIREs Comput Mol Sci., 4 (1), 15-25 (2014). 
 CP2K: atomistic simulations of condensed matter systems.
 https://doi.org/10.1002/wcms.1159

 Del Ben, M; Hutter, J; VandeVondele, J. 
 JOURNAL OF CHEMICAL THEORY AND COMPUTATION, 9 (6), 2654-2671 (2013). 
 Electron Correlation in the Condensed Phase from a Resolution of
 Identity Approach Based on the Gaussian and Plane Waves Scheme.
 https://doi.org/10.1021/ct4002202

 Del Ben, M; Hutter, J; VandeVondele, J. 
 JOURNAL OF CHEMICAL THEORY AND COMPUTATION, 8 (11), 4177-4188 (2012). 
 Second-Order Moller-Plesset Perturbation Theory in the Condensed Phase:
 An Efficient and Massively Parallel Gaussian and Plane Waves Approach.
 https://doi.org/10.1021/ct300531w

 Guidon, M; Hutter, J; VandeVondele, J. 
 JOURNAL OF CHEMICAL THEORY AND COMPUTATION, 5 (11), 3010-3021 (2009). 
 Robust Periodic Hartree-Fock Exchange for Large-Scale Simulations Using
 Gaussian Basis Sets.
 https://doi.org/10.1021/ct900494g

 Guidon, M; Schiffmann, F; Hutter, J; VandeVondele, J. 
 JOURNAL OF CHEMICAL PHYSICS, 128 (21), 214104 (2008). 
 Ab initio molecular dynamics using hybrid density functionals.
 https://doi.org/10.1063/1.2931945

 Frigo, M; Johnson, SG. 
 PROCEEDINGS OF THE IEEE, 93 (2), 216-231 (2005). 
 The design and implementation of FFTW3.
 https://doi.org/10.1109/JPROC.2004.840301

 Lippert, G; Hutter, J; Parrinello, M. 
 THEORETICAL CHEMISTRY ACCOUNTS, 103 (2), 124-140 (1999). 
 The Gaussian and augmented-plane-wave density functional method for ab
 initio molecular dynamics simulations.
 https://doi.org/10.1007/s002140050523

 Krack, M; Parrinello, M. 
 PHYSICAL CHEMISTRY CHEMICAL PHYSICS, 2 (10), 2105-2112 (2000). 
 All-electron ab-initio molecular dynamics.
 https://doi.org/10.1039/b001167n

 Martyna, GJ; Tuckerman, ME. 
 JOURNAL OF CHEMICAL PHYSICS, 110 (6), 2810-2821 (1999). 
 A reciprocal space based method for treating long range interactions in
 ab initio and force-field-based calculations in clusters.
 https://doi.org/10.1063/1.477923

 Perdew, JP; Burke, K; Ernzerhof, M. 
 PHYSICAL REVIEW LETTERS, 77 (18), 3865-3868 (1996). 
 Generalized gradient approximation made simple.
 https://doi.org/10.1103/PhysRevLett.77.3865


 -------------------------------------------------------------------------------
 -                                                                             -
 -                                T I M I N G                                  -
 -                                                                             -
 -------------------------------------------------------------------------------
 SUBROUTINE                       CALLS  ASD         SELF TIME        TOTAL TIME
                                MAXIMUM       AVERAGE  MAXIMUM  AVERAGE  MAXIMUM
 CP2K                                 1  1.0    0.024    0.024   66.272   66.272
 qs_energies                          1  2.0    0.000    0.000   64.307   64.307
 mp2_main                             1  3.0    0.000    0.000   44.950   44.950
 mp2_gpw_main                         1  4.0    0.000    0.000   30.207   30.207
 rpa_ri_compute_en                    1  5.0    0.000    0.000   29.189   29.189
 rpa_num_int                          1  6.0    0.001    0.001   29.188   29.188
 integrate_four_center                5  7.8    0.002    0.002   28.523   28.523
 dbt_total                         1029  9.1    0.003    0.003   25.231   25.231
 compute_mat_P_omega                  1  7.0    0.004    0.004   23.411   23.411
 compute_mat_P_omega_contract        30  8.0    0.375    0.375   23.251   23.251
 dbt_contract                       181 11.0    0.006    0.006   21.006   21.006
 qs_ks_build_kohn_sham_matrix         4  6.5    0.001    0.001   19.363   19.363
 scf_env_do_scf                       1  3.0    0.000    0.000   19.106   19.106
 scf_env_do_scf_inner_loop            3  4.0    0.000    0.000   19.106   19.106
 dbt_tas_total                      396 11.9    0.185    0.185   19.015   19.015
 dbt_tas_multiply                   216 12.5    0.000    0.000   18.885   18.885
 qs_ks_update_qs_env                  3  5.0    0.000    0.000   18.639   18.639
 rebuild_ks_matrix                    3  6.0    0.000    0.000   18.639   18.639
 dbt_tas_dbm                        216 14.5    0.001    0.001   14.874   14.874
 dbm_multiply                       216 16.5   14.872   14.872   14.872   14.872
 compute_vec_Sigma_x_minus_vxc_       1  4.0    0.000    0.000   14.737   14.737
 hfx_ks_matrix                        4  7.5    0.000    0.000   14.512   14.512
 integrate_four_center_main           5  8.8    0.000    0.000   13.069   13.069
 integrate_four_center_bin            5  9.8   13.068   13.068   13.068   13.068
 calc_screening_functions             2  8.0   10.089   10.089   12.246   12.246
 dbt_tas_mm_1N                      122 15.8    0.000    0.000    8.819    8.819
 compute_mat_P_omega_calc_M_occ      30  9.0    0.362    0.362    6.700    6.700
 compute_mat_P_omega_calc_M_vir      30  9.0    0.000    0.000    6.297    6.297
 compute_mat_P_omega_calc_P_t        30  9.0    0.000    0.000    6.077    6.077
 dbt_tas_mm_2                        31 15.1    0.000    0.000    5.185    5.185
 dbt_copy                           368 10.2    0.006    0.006    4.090    4.090
 powell_optimize                2728921  9.0    3.628    3.628    3.628    3.628
 compute_QP_energies                  1  7.0    0.005    0.005    3.521    3.521
 compute_self_energy_cubic_gw         1  8.0    0.007    0.007    3.487    3.487
 calc_pair_dist_radii                 2  8.0    1.708    1.708    3.179    3.179
 contract_cubic_gw                   60  9.0    0.000    0.000    2.610    2.610
 fft_wrap_pw1pw2                     66  9.9    0.001    0.001    2.587    2.587
 qs_vxc_create                        4  7.5    0.000    0.000    2.536    2.536
 xc_vxc_pw_create                     3  9.0    0.047    0.047    2.536    2.536
 dbt_reshape                         93 11.9    1.919    1.919    2.458    2.458
 compute_mat_P_omega_copy_M_occ      30  9.0    0.000    0.000    2.229    2.229
 fft_wrap_pw1pw2_200                 41 11.3    0.068    0.068    2.139    2.139
 dbt_crop                           212 12.0    1.262    1.262    2.075    2.075
 qs_init_subsys                       1  2.0    0.002    0.002    1.857    1.857
 qs_env_setup                         1  3.0    0.000    0.000    1.806    1.806
 qs_env_rebuild_pw_env                2  3.5    0.000    0.000    1.806    1.806
 pw_env_rebuild                       1  5.0    0.000    0.000    1.806    1.806
 pw_grid_setup                        5  6.0    0.000    0.000    1.803    1.803
 pw_grid_setup_internal               5  7.0    0.035    0.035    1.803    1.803
 xc_rho_set_and_dset_create           3 10.0    0.026    0.026    1.717    1.717
 dbt_tas_reserve_blocks_index      1449 14.1    0.575    0.575    1.663    1.663
 pw_grid_sort                         5  8.0    1.284    1.284    1.603    1.603
 convert_to_new_pgrid               648 14.5    0.003    0.003    1.536    1.536
 dbm_copy                           432 15.5    1.533    1.533    1.533    1.533
 get_minimax_grid                     1  7.0    0.000    0.000    1.471    1.471
 dbt_reserve_blocks_index           919 12.7    0.051    0.051    1.402    1.402
 dbt_reserve_blocks_index_array     767 12.1    0.002    0.002    1.400    1.400
 fft3d_s                             67 11.8    1.354    1.354    1.373    1.373
 -------------------------------------------------------------------------------

 The number of warnings for this run is : 2
 
 -------------------------------------------------------------------------------
  **** **** ******  **  PROGRAM ENDED AT                 2024-05-14 13:01:36.607
 ***** ** ***  *** **   PROGRAM RAN ON                               surface-mia
 **    ****   ******    PROGRAM RAN BY                                       mia
 ***** **    ** ** **   PROGRAM PROCESS ID                                 37999
  **** **  *******  **  PROGRAM STOPPED IN /home/mia/Dokumente/GW100/Paper/Fig_4
                                           /6_BN_PBE
