------------------------------------------------------------
          Invoking FHI-aims ...

          When using FHI-aims, please cite the following reference:

            Volker Blum, Ralf Gehrke, Felix Hanke, Paula Havu,
            Ville Havu, Xinguo Ren, Karsten Reuter, and Matthias Scheffler,
            'Ab Initio Molecular Simulations with Numeric Atom-Centered Orbitals',
            Computer Physics Communications 180, 2175-2196 (2009)

          In addition, many other developments in FHI-aims are likely important for
          your particular application. A partial list of references is given at the end of
          this file. Thank you for giving credit to the authors of these developments.

          For any questions about FHI-aims, please visit our slack channel at

            https://fhi-aims.slack.com

          and our main development and support site at

            https://aims-git.rz-berlin.mpg.de .

          The latter site, in particular, has a wiki to collect information, as well
          as an issue tracker to log discussions, suggest improvements, and report issues
          or bugs. https://aims-git.rz-berlin.mpg.de is also the main development site
          of the project and all new and updated code versions can be obtained there.
          Please send an email to aims-coordinators@fhi-berlin.mpg.de and we will add
          you to these sites. They are for you and everyone is welcome there.

------------------------------------------------------------



  Date     :  20240515, Time     :  045031.535
  Time zero on CPU 1             :   0.458476000000000E+00  s.
  Internal wall clock time zero  :           484980631.535  s.

  FHI-aims created a unique identifier for this run for later identification
  aims_uuid : 772C7EC7-C20E-4494-AD54-227294399A81

  Build configuration of the current instance of FHI-aims
  -------------------------------------------------------
  FHI-aims version      : 221103.1
  Commit number         : GITDIR-NOTFOUND
  CMake host system     : Linux-4.18.0-372.32.1.el8_6.x86_64
  CMake version         : 3.24.3
  Fortran compiler      : /opt/software/pc2/EB-SW/software/OpenMPI/4.1.4-GCC-12.2.0/bin/mpifort (GNU) version 12.2.0
  Fortran compiler flags: -O3 -ffree-line-length-none -fallow-argument-mismatch -march=znver3 -mprefer-vector-width=256
  C compiler            : /opt/software/pc2/EB-SW/software/GCCcore/12.2.0/bin/gcc (GNU) version 12.2.0
  C compiler flags      : -O3 -DNDEBUG -funroll-loops -march=znver3 -mprefer-vector-width=256
  HIP compiler          :
  HIP compiler flags    :
  HIP GPU arch          :
  Using MPI
  Using ScaLAPACK
  Using LibXC
  Using i-PI
  Using RLSY
  Linking against: /opt/software/pc2/EB-SW/software/ScaLAPACK/2.2.0-gompi-2022b-fb/lib/libscalapack.so
                   /opt/software/pc2/EB-SW/software/OpenBLAS/0.3.21-GCC-12.2.0/lib/libopenblas.so

  Using      512 parallel tasks.
  Task        0 on host n2cn0192 reporting.
  Task        1 on host n2cn0192 reporting.
  Task        2 on host n2cn0192 reporting.
  Task        3 on host n2cn0192 reporting.
  Task        4 on host n2cn0192 reporting.
  Task        5 on host n2cn0192 reporting.
  Task        6 on host n2cn0192 reporting.
  Task        7 on host n2cn0192 reporting.
  Task        8 on host n2cn0192 reporting.
  Task        9 on host n2cn0192 reporting.
  Task       10 on host n2cn0192 reporting.
  Task       11 on host n2cn0192 reporting.
  Task       12 on host n2cn0192 reporting.
  Task       13 on host n2cn0192 reporting.
  Task       14 on host n2cn0192 reporting.
  Task       15 on host n2cn0192 reporting.
  Task       16 on host n2cn0192 reporting.
  Task       17 on host n2cn0192 reporting.
  Task       18 on host n2cn0192 reporting.
  Task       19 on host n2cn0192 reporting.
  Task       20 on host n2cn0192 reporting.
  Task       21 on host n2cn0192 reporting.
  Task       22 on host n2cn0192 reporting.
  Task       23 on host n2cn0192 reporting.
  Task       24 on host n2cn0192 reporting.
  Task       25 on host n2cn0192 reporting.
  Task       26 on host n2cn0192 reporting.
  Task       27 on host n2cn0192 reporting.
  Task       28 on host n2cn0192 reporting.
  Task       29 on host n2cn0192 reporting.
  Task       30 on host n2cn0192 reporting.
  Task       31 on host n2cn0192 reporting.
  Task       32 on host n2cn0192 reporting.
  Task       33 on host n2cn0192 reporting.
  Task       34 on host n2cn0192 reporting.
  Task       35 on host n2cn0192 reporting.
  Task       36 on host n2cn0192 reporting.
  Task       37 on host n2cn0192 reporting.
  Task       38 on host n2cn0192 reporting.
  Task       39 on host n2cn0192 reporting.
  Task       40 on host n2cn0192 reporting.
  Task       41 on host n2cn0192 reporting.
  Task       42 on host n2cn0192 reporting.
  Task       43 on host n2cn0192 reporting.
  Task       44 on host n2cn0192 reporting.
  Task       45 on host n2cn0192 reporting.
  Task       46 on host n2cn0192 reporting.
  Task       47 on host n2cn0192 reporting.
  Task       48 on host n2cn0192 reporting.
  Task       49 on host n2cn0192 reporting.
  Task       50 on host n2cn0192 reporting.
  Task       51 on host n2cn0192 reporting.
  Task       52 on host n2cn0192 reporting.
  Task       53 on host n2cn0192 reporting.
  Task       54 on host n2cn0192 reporting.
  Task       55 on host n2cn0192 reporting.
  Task       56 on host n2cn0192 reporting.
  Task       57 on host n2cn0192 reporting.
  Task       58 on host n2cn0192 reporting.
  Task       59 on host n2cn0192 reporting.
  Task       60 on host n2cn0192 reporting.
  Task       61 on host n2cn0192 reporting.
  Task       62 on host n2cn0192 reporting.
  Task       63 on host n2cn0192 reporting.
  Task       64 on host n2cn0192 reporting.
  Task       65 on host n2cn0192 reporting.
  Task       66 on host n2cn0192 reporting.
  Task       67 on host n2cn0192 reporting.
  Task       68 on host n2cn0192 reporting.
  Task       69 on host n2cn0192 reporting.
  Task       70 on host n2cn0192 reporting.
  Task       71 on host n2cn0192 reporting.
  Task       72 on host n2cn0192 reporting.
  Task       73 on host n2cn0192 reporting.
  Task       74 on host n2cn0192 reporting.
  Task       75 on host n2cn0192 reporting.
  Task       76 on host n2cn0192 reporting.
  Task       77 on host n2cn0192 reporting.
  Task       78 on host n2cn0192 reporting.
  Task       79 on host n2cn0192 reporting.
  Task       80 on host n2cn0192 reporting.
  Task       81 on host n2cn0192 reporting.
  Task       82 on host n2cn0192 reporting.
  Task       83 on host n2cn0192 reporting.
  Task       84 on host n2cn0192 reporting.
  Task       85 on host n2cn0192 reporting.
  Task       86 on host n2cn0192 reporting.
  Task       87 on host n2cn0192 reporting.
  Task       88 on host n2cn0192 reporting.
  Task       89 on host n2cn0192 reporting.
  Task       90 on host n2cn0192 reporting.
  Task       91 on host n2cn0192 reporting.
  Task       92 on host n2cn0192 reporting.
  Task       93 on host n2cn0192 reporting.
  Task       94 on host n2cn0192 reporting.
  Task       95 on host n2cn0192 reporting.
  Task       96 on host n2cn0192 reporting.
  Task       97 on host n2cn0192 reporting.
  Task       98 on host n2cn0192 reporting.
  Task       99 on host n2cn0192 reporting.
  Task      100 on host n2cn0192 reporting.
  Task      101 on host n2cn0192 reporting.
  Task      102 on host n2cn0192 reporting.
  Task      103 on host n2cn0192 reporting.
  Task      104 on host n2cn0192 reporting.
  Task      105 on host n2cn0192 reporting.
  Task      106 on host n2cn0192 reporting.
  Task      107 on host n2cn0192 reporting.
  Task      108 on host n2cn0192 reporting.
  Task      109 on host n2cn0192 reporting.
  Task      110 on host n2cn0192 reporting.
  Task      111 on host n2cn0192 reporting.
  Task      112 on host n2cn0192 reporting.
  Task      113 on host n2cn0192 reporting.
  Task      114 on host n2cn0192 reporting.
  Task      115 on host n2cn0192 reporting.
  Task      116 on host n2cn0192 reporting.
  Task      117 on host n2cn0192 reporting.
  Task      118 on host n2cn0192 reporting.
  Task      119 on host n2cn0192 reporting.
  Task      120 on host n2cn0192 reporting.
  Task      121 on host n2cn0192 reporting.
  Task      122 on host n2cn0192 reporting.
  Task      123 on host n2cn0192 reporting.
  Task      124 on host n2cn0192 reporting.
  Task      125 on host n2cn0192 reporting.
  Task      126 on host n2cn0192 reporting.
  Task      127 on host n2cn0192 reporting.
  Task      128 on host n2cn1028.ab2021.local reporting.
  Task      129 on host n2cn1028.ab2021.local reporting.
  Task      130 on host n2cn1028.ab2021.local reporting.
  Task      131 on host n2cn1028.ab2021.local reporting.
  Task      132 on host n2cn1028.ab2021.local reporting.
  Task      133 on host n2cn1028.ab2021.local reporting.
  Task      134 on host n2cn1028.ab2021.local reporting.
  Task      135 on host n2cn1028.ab2021.local reporting.
  Task      136 on host n2cn1028.ab2021.local reporting.
  Task      137 on host n2cn1028.ab2021.local reporting.
  Task      138 on host n2cn1028.ab2021.local reporting.
  Task      139 on host n2cn1028.ab2021.local reporting.
  Task      140 on host n2cn1028.ab2021.local reporting.
  Task      141 on host n2cn1028.ab2021.local reporting.
  Task      142 on host n2cn1028.ab2021.local reporting.
  Task      143 on host n2cn1028.ab2021.local reporting.
  Task      144 on host n2cn1028.ab2021.local reporting.
  Task      145 on host n2cn1028.ab2021.local reporting.
  Task      146 on host n2cn1028.ab2021.local reporting.
  Task      147 on host n2cn1028.ab2021.local reporting.
  Task      148 on host n2cn1028.ab2021.local reporting.
  Task      149 on host n2cn1028.ab2021.local reporting.
  Task      150 on host n2cn1028.ab2021.local reporting.
  Task      151 on host n2cn1028.ab2021.local reporting.
  Task      152 on host n2cn1028.ab2021.local reporting.
  Task      153 on host n2cn1028.ab2021.local reporting.
  Task      154 on host n2cn1028.ab2021.local reporting.
  Task      155 on host n2cn1028.ab2021.local reporting.
  Task      156 on host n2cn1028.ab2021.local reporting.
  Task      157 on host n2cn1028.ab2021.local reporting.
  Task      158 on host n2cn1028.ab2021.local reporting.
  Task      159 on host n2cn1028.ab2021.local reporting.
  Task      160 on host n2cn1028.ab2021.local reporting.
  Task      161 on host n2cn1028.ab2021.local reporting.
  Task      162 on host n2cn1028.ab2021.local reporting.
  Task      163 on host n2cn1028.ab2021.local reporting.
  Task      164 on host n2cn1028.ab2021.local reporting.
  Task      165 on host n2cn1028.ab2021.local reporting.
  Task      166 on host n2cn1028.ab2021.local reporting.
  Task      167 on host n2cn1028.ab2021.local reporting.
  Task      168 on host n2cn1028.ab2021.local reporting.
  Task      169 on host n2cn1028.ab2021.local reporting.
  Task      170 on host n2cn1028.ab2021.local reporting.
  Task      171 on host n2cn1028.ab2021.local reporting.
  Task      172 on host n2cn1028.ab2021.local reporting.
  Task      173 on host n2cn1028.ab2021.local reporting.
  Task      174 on host n2cn1028.ab2021.local reporting.
  Task      175 on host n2cn1028.ab2021.local reporting.
  Task      176 on host n2cn1028.ab2021.local reporting.
  Task      177 on host n2cn1028.ab2021.local reporting.
  Task      178 on host n2cn1028.ab2021.local reporting.
  Task      179 on host n2cn1028.ab2021.local reporting.
  Task      180 on host n2cn1028.ab2021.local reporting.
  Task      181 on host n2cn1028.ab2021.local reporting.
  Task      182 on host n2cn1028.ab2021.local reporting.
  Task      183 on host n2cn1028.ab2021.local reporting.
  Task      184 on host n2cn1028.ab2021.local reporting.
  Task      185 on host n2cn1028.ab2021.local reporting.
  Task      186 on host n2cn1028.ab2021.local reporting.
  Task      187 on host n2cn1028.ab2021.local reporting.
  Task      188 on host n2cn1028.ab2021.local reporting.
  Task      189 on host n2cn1028.ab2021.local reporting.
  Task      190 on host n2cn1028.ab2021.local reporting.
  Task      191 on host n2cn1028.ab2021.local reporting.
  Task      192 on host n2cn1028.ab2021.local reporting.
  Task      193 on host n2cn1028.ab2021.local reporting.
  Task      194 on host n2cn1028.ab2021.local reporting.
  Task      195 on host n2cn1028.ab2021.local reporting.
  Task      196 on host n2cn1028.ab2021.local reporting.
  Task      197 on host n2cn1028.ab2021.local reporting.
  Task      198 on host n2cn1028.ab2021.local reporting.
  Task      199 on host n2cn1028.ab2021.local reporting.
  Task      200 on host n2cn1028.ab2021.local reporting.
  Task      201 on host n2cn1028.ab2021.local reporting.
  Task      202 on host n2cn1028.ab2021.local reporting.
  Task      203 on host n2cn1028.ab2021.local reporting.
  Task      204 on host n2cn1028.ab2021.local reporting.
  Task      205 on host n2cn1028.ab2021.local reporting.
  Task      206 on host n2cn1028.ab2021.local reporting.
  Task      207 on host n2cn1028.ab2021.local reporting.
  Task      208 on host n2cn1028.ab2021.local reporting.
  Task      209 on host n2cn1028.ab2021.local reporting.
  Task      210 on host n2cn1028.ab2021.local reporting.
  Task      211 on host n2cn1028.ab2021.local reporting.
  Task      212 on host n2cn1028.ab2021.local reporting.
  Task      213 on host n2cn1028.ab2021.local reporting.
  Task      214 on host n2cn1028.ab2021.local reporting.
  Task      215 on host n2cn1028.ab2021.local reporting.
  Task      216 on host n2cn1028.ab2021.local reporting.
  Task      217 on host n2cn1028.ab2021.local reporting.
  Task      218 on host n2cn1028.ab2021.local reporting.
  Task      219 on host n2cn1028.ab2021.local reporting.
  Task      220 on host n2cn1028.ab2021.local reporting.
  Task      221 on host n2cn1028.ab2021.local reporting.
  Task      222 on host n2cn1028.ab2021.local reporting.
  Task      223 on host n2cn1028.ab2021.local reporting.
  Task      224 on host n2cn1028.ab2021.local reporting.
  Task      225 on host n2cn1028.ab2021.local reporting.
  Task      226 on host n2cn1028.ab2021.local reporting.
  Task      227 on host n2cn1028.ab2021.local reporting.
  Task      228 on host n2cn1028.ab2021.local reporting.
  Task      229 on host n2cn1028.ab2021.local reporting.
  Task      230 on host n2cn1028.ab2021.local reporting.
  Task      231 on host n2cn1028.ab2021.local reporting.
  Task      232 on host n2cn1028.ab2021.local reporting.
  Task      233 on host n2cn1028.ab2021.local reporting.
  Task      234 on host n2cn1028.ab2021.local reporting.
  Task      235 on host n2cn1028.ab2021.local reporting.
  Task      236 on host n2cn1028.ab2021.local reporting.
  Task      237 on host n2cn1028.ab2021.local reporting.
  Task      238 on host n2cn1028.ab2021.local reporting.
  Task      239 on host n2cn1028.ab2021.local reporting.
  Task      240 on host n2cn1028.ab2021.local reporting.
  Task      241 on host n2cn1028.ab2021.local reporting.
  Task      242 on host n2cn1028.ab2021.local reporting.
  Task      243 on host n2cn1028.ab2021.local reporting.
  Task      244 on host n2cn1028.ab2021.local reporting.
  Task      245 on host n2cn1028.ab2021.local reporting.
  Task      246 on host n2cn1028.ab2021.local reporting.
  Task      247 on host n2cn1028.ab2021.local reporting.
  Task      248 on host n2cn1028.ab2021.local reporting.
  Task      249 on host n2cn1028.ab2021.local reporting.
  Task      250 on host n2cn1028.ab2021.local reporting.
  Task      251 on host n2cn1028.ab2021.local reporting.
  Task      252 on host n2cn1028.ab2021.local reporting.
  Task      253 on host n2cn1028.ab2021.local reporting.
  Task      254 on host n2cn1028.ab2021.local reporting.
  Task      255 on host n2cn1028.ab2021.local reporting.
  Task      256 on host n2cn1038 reporting.
  Task      257 on host n2cn1038 reporting.
  Task      258 on host n2cn1038 reporting.
  Task      259 on host n2cn1038 reporting.
  Task      260 on host n2cn1038 reporting.
  Task      261 on host n2cn1038 reporting.
  Task      262 on host n2cn1038 reporting.
  Task      263 on host n2cn1038 reporting.
  Task      264 on host n2cn1038 reporting.
  Task      265 on host n2cn1038 reporting.
  Task      266 on host n2cn1038 reporting.
  Task      267 on host n2cn1038 reporting.
  Task      268 on host n2cn1038 reporting.
  Task      269 on host n2cn1038 reporting.
  Task      270 on host n2cn1038 reporting.
  Task      271 on host n2cn1038 reporting.
  Task      272 on host n2cn1038 reporting.
  Task      273 on host n2cn1038 reporting.
  Task      274 on host n2cn1038 reporting.
  Task      275 on host n2cn1038 reporting.
  Task      276 on host n2cn1038 reporting.
  Task      277 on host n2cn1038 reporting.
  Task      278 on host n2cn1038 reporting.
  Task      279 on host n2cn1038 reporting.
  Task      280 on host n2cn1038 reporting.
  Task      281 on host n2cn1038 reporting.
  Task      282 on host n2cn1038 reporting.
  Task      283 on host n2cn1038 reporting.
  Task      284 on host n2cn1038 reporting.
  Task      285 on host n2cn1038 reporting.
  Task      286 on host n2cn1038 reporting.
  Task      287 on host n2cn1038 reporting.
  Task      288 on host n2cn1038 reporting.
  Task      289 on host n2cn1038 reporting.
  Task      290 on host n2cn1038 reporting.
  Task      291 on host n2cn1038 reporting.
  Task      292 on host n2cn1038 reporting.
  Task      293 on host n2cn1038 reporting.
  Task      294 on host n2cn1038 reporting.
  Task      295 on host n2cn1038 reporting.
  Task      296 on host n2cn1038 reporting.
  Task      297 on host n2cn1038 reporting.
  Task      298 on host n2cn1038 reporting.
  Task      299 on host n2cn1038 reporting.
  Task      300 on host n2cn1038 reporting.
  Task      301 on host n2cn1038 reporting.
  Task      302 on host n2cn1038 reporting.
  Task      303 on host n2cn1038 reporting.
  Task      304 on host n2cn1038 reporting.
  Task      305 on host n2cn1038 reporting.
  Task      306 on host n2cn1038 reporting.
  Task      307 on host n2cn1038 reporting.
  Task      308 on host n2cn1038 reporting.
  Task      309 on host n2cn1038 reporting.
  Task      310 on host n2cn1038 reporting.
  Task      311 on host n2cn1038 reporting.
  Task      312 on host n2cn1038 reporting.
  Task      313 on host n2cn1038 reporting.
  Task      314 on host n2cn1038 reporting.
  Task      315 on host n2cn1038 reporting.
  Task      316 on host n2cn1038 reporting.
  Task      317 on host n2cn1038 reporting.
  Task      318 on host n2cn1038 reporting.
  Task      319 on host n2cn1038 reporting.
  Task      320 on host n2cn1038 reporting.
  Task      321 on host n2cn1038 reporting.
  Task      322 on host n2cn1038 reporting.
  Task      323 on host n2cn1038 reporting.
  Task      324 on host n2cn1038 reporting.
  Task      325 on host n2cn1038 reporting.
  Task      326 on host n2cn1038 reporting.
  Task      327 on host n2cn1038 reporting.
  Task      328 on host n2cn1038 reporting.
  Task      329 on host n2cn1038 reporting.
  Task      330 on host n2cn1038 reporting.
  Task      331 on host n2cn1038 reporting.
  Task      332 on host n2cn1038 reporting.
  Task      333 on host n2cn1038 reporting.
  Task      334 on host n2cn1038 reporting.
  Task      335 on host n2cn1038 reporting.
  Task      336 on host n2cn1038 reporting.
  Task      337 on host n2cn1038 reporting.
  Task      338 on host n2cn1038 reporting.
  Task      339 on host n2cn1038 reporting.
  Task      340 on host n2cn1038 reporting.
  Task      341 on host n2cn1038 reporting.
  Task      342 on host n2cn1038 reporting.
  Task      343 on host n2cn1038 reporting.
  Task      344 on host n2cn1038 reporting.
  Task      345 on host n2cn1038 reporting.
  Task      346 on host n2cn1038 reporting.
  Task      347 on host n2cn1038 reporting.
  Task      348 on host n2cn1038 reporting.
  Task      349 on host n2cn1038 reporting.
  Task      350 on host n2cn1038 reporting.
  Task      351 on host n2cn1038 reporting.
  Task      352 on host n2cn1038 reporting.
  Task      353 on host n2cn1038 reporting.
  Task      354 on host n2cn1038 reporting.
  Task      355 on host n2cn1038 reporting.
  Task      356 on host n2cn1038 reporting.
  Task      357 on host n2cn1038 reporting.
  Task      358 on host n2cn1038 reporting.
  Task      359 on host n2cn1038 reporting.
  Task      360 on host n2cn1038 reporting.
  Task      361 on host n2cn1038 reporting.
  Task      362 on host n2cn1038 reporting.
  Task      363 on host n2cn1038 reporting.
  Task      364 on host n2cn1038 reporting.
  Task      365 on host n2cn1038 reporting.
  Task      366 on host n2cn1038 reporting.
  Task      367 on host n2cn1038 reporting.
  Task      368 on host n2cn1038 reporting.
  Task      369 on host n2cn1038 reporting.
  Task      370 on host n2cn1038 reporting.
  Task      371 on host n2cn1038 reporting.
  Task      372 on host n2cn1038 reporting.
  Task      373 on host n2cn1038 reporting.
  Task      374 on host n2cn1038 reporting.
  Task      375 on host n2cn1038 reporting.
  Task      376 on host n2cn1038 reporting.
  Task      377 on host n2cn1038 reporting.
  Task      378 on host n2cn1038 reporting.
  Task      379 on host n2cn1038 reporting.
  Task      380 on host n2cn1038 reporting.
  Task      381 on host n2cn1038 reporting.
  Task      382 on host n2cn1038 reporting.
  Task      383 on host n2cn1038 reporting.
  Task      384 on host n2cn1041 reporting.
  Task      385 on host n2cn1041 reporting.
  Task      386 on host n2cn1041 reporting.
  Task      387 on host n2cn1041 reporting.
  Task      388 on host n2cn1041 reporting.
  Task      389 on host n2cn1041 reporting.
  Task      390 on host n2cn1041 reporting.
  Task      391 on host n2cn1041 reporting.
  Task      392 on host n2cn1041 reporting.
  Task      393 on host n2cn1041 reporting.
  Task      394 on host n2cn1041 reporting.
  Task      395 on host n2cn1041 reporting.
  Task      396 on host n2cn1041 reporting.
  Task      397 on host n2cn1041 reporting.
  Task      398 on host n2cn1041 reporting.
  Task      399 on host n2cn1041 reporting.
  Task      400 on host n2cn1041 reporting.
  Task      401 on host n2cn1041 reporting.
  Task      402 on host n2cn1041 reporting.
  Task      403 on host n2cn1041 reporting.
  Task      404 on host n2cn1041 reporting.
  Task      405 on host n2cn1041 reporting.
  Task      406 on host n2cn1041 reporting.
  Task      407 on host n2cn1041 reporting.
  Task      408 on host n2cn1041 reporting.
  Task      409 on host n2cn1041 reporting.
  Task      410 on host n2cn1041 reporting.
  Task      411 on host n2cn1041 reporting.
  Task      412 on host n2cn1041 reporting.
  Task      413 on host n2cn1041 reporting.
  Task      414 on host n2cn1041 reporting.
  Task      415 on host n2cn1041 reporting.
  Task      416 on host n2cn1041 reporting.
  Task      417 on host n2cn1041 reporting.
  Task      418 on host n2cn1041 reporting.
  Task      419 on host n2cn1041 reporting.
  Task      420 on host n2cn1041 reporting.
  Task      421 on host n2cn1041 reporting.
  Task      422 on host n2cn1041 reporting.
  Task      423 on host n2cn1041 reporting.
  Task      424 on host n2cn1041 reporting.
  Task      425 on host n2cn1041 reporting.
  Task      426 on host n2cn1041 reporting.
  Task      427 on host n2cn1041 reporting.
  Task      428 on host n2cn1041 reporting.
  Task      429 on host n2cn1041 reporting.
  Task      430 on host n2cn1041 reporting.
  Task      431 on host n2cn1041 reporting.
  Task      432 on host n2cn1041 reporting.
  Task      433 on host n2cn1041 reporting.
  Task      434 on host n2cn1041 reporting.
  Task      435 on host n2cn1041 reporting.
  Task      436 on host n2cn1041 reporting.
  Task      437 on host n2cn1041 reporting.
  Task      438 on host n2cn1041 reporting.
  Task      439 on host n2cn1041 reporting.
  Task      440 on host n2cn1041 reporting.
  Task      441 on host n2cn1041 reporting.
  Task      442 on host n2cn1041 reporting.
  Task      443 on host n2cn1041 reporting.
  Task      444 on host n2cn1041 reporting.
  Task      445 on host n2cn1041 reporting.
  Task      446 on host n2cn1041 reporting.
  Task      447 on host n2cn1041 reporting.
  Task      448 on host n2cn1041 reporting.
  Task      449 on host n2cn1041 reporting.
  Task      450 on host n2cn1041 reporting.
  Task      451 on host n2cn1041 reporting.
  Task      452 on host n2cn1041 reporting.
  Task      453 on host n2cn1041 reporting.
  Task      454 on host n2cn1041 reporting.
  Task      455 on host n2cn1041 reporting.
  Task      456 on host n2cn1041 reporting.
  Task      457 on host n2cn1041 reporting.
  Task      458 on host n2cn1041 reporting.
  Task      459 on host n2cn1041 reporting.
  Task      460 on host n2cn1041 reporting.
  Task      461 on host n2cn1041 reporting.
  Task      462 on host n2cn1041 reporting.
  Task      463 on host n2cn1041 reporting.
  Task      464 on host n2cn1041 reporting.
  Task      465 on host n2cn1041 reporting.
  Task      466 on host n2cn1041 reporting.
  Task      467 on host n2cn1041 reporting.
  Task      468 on host n2cn1041 reporting.
  Task      469 on host n2cn1041 reporting.
  Task      470 on host n2cn1041 reporting.
  Task      471 on host n2cn1041 reporting.
  Task      472 on host n2cn1041 reporting.
  Task      473 on host n2cn1041 reporting.
  Task      474 on host n2cn1041 reporting.
  Task      475 on host n2cn1041 reporting.
  Task      476 on host n2cn1041 reporting.
  Task      477 on host n2cn1041 reporting.
  Task      478 on host n2cn1041 reporting.
  Task      479 on host n2cn1041 reporting.
  Task      480 on host n2cn1041 reporting.
  Task      481 on host n2cn1041 reporting.
  Task      482 on host n2cn1041 reporting.
  Task      483 on host n2cn1041 reporting.
  Task      484 on host n2cn1041 reporting.
  Task      485 on host n2cn1041 reporting.
  Task      486 on host n2cn1041 reporting.
  Task      487 on host n2cn1041 reporting.
  Task      488 on host n2cn1041 reporting.
  Task      489 on host n2cn1041 reporting.
  Task      490 on host n2cn1041 reporting.
  Task      491 on host n2cn1041 reporting.
  Task      492 on host n2cn1041 reporting.
  Task      493 on host n2cn1041 reporting.
  Task      494 on host n2cn1041 reporting.
  Task      495 on host n2cn1041 reporting.
  Task      496 on host n2cn1041 reporting.
  Task      497 on host n2cn1041 reporting.
  Task      498 on host n2cn1041 reporting.
  Task      499 on host n2cn1041 reporting.
  Task      500 on host n2cn1041 reporting.
  Task      501 on host n2cn1041 reporting.
  Task      502 on host n2cn1041 reporting.
  Task      503 on host n2cn1041 reporting.
  Task      504 on host n2cn1041 reporting.
  Task      505 on host n2cn1041 reporting.
  Task      506 on host n2cn1041 reporting.
  Task      507 on host n2cn1041 reporting.
  Task      508 on host n2cn1041 reporting.
  Task      509 on host n2cn1041 reporting.
  Task      510 on host n2cn1041 reporting.
  Task      511 on host n2cn1041 reporting.

  Performing system and environment tests:
  | Environment variable OMP_NUM_THREADS correctly set to 1.
  | Checking for ScaLAPACK...
  | Testing pdtran()...
  | All pdtran() tests passed.

  Obtaining array dimensions for all initial allocations:
  
  -----------------------------------------------------------------------
  Parsing control.in (first pass over file, find array dimensions only).
  The contents of control.in will be repeated verbatim below
  unless switched off by setting 'verbatim_writeout .false.' .
  in the first line of control.in .
  -----------------------------------------------------------------------
  
  #control.in header for database project
  #using def2-QVPZ basis for light and heavy elements
  
  #########################################
    xc pbe
    qpe_calc ev_scgw0
    #RI_method v
    #spin               collinear
    #default_initial_moment 0.01
    spin none
  
    iterations_sc_cd 20
    frequency_points 2000
    full_cmplx_sigma .true.
  
    anacon_type  1
    n_anacon_par 128
    #contour_def_gw   6 6
    contour_def_gw   1 17
    nocc_sc_cd 10
    nvirt_sc_cd 10
    #nvirt_sc_cd 10
   # sc_reiterate .true.
    iterations_sc_cd 40
    try_zshot .false.
    contour_eta 0.004
    state_lower_limit 1
    state_upper_limit 500
    print_self_energy 6 -20.0 0.0
  
    relativistic none
    override_relativity .true.
    partition_type rho_r2
    density_update_method density_matrix
  
    calc_spectral_func -20.0 0.0 0.001
    spectral_func_state 6
  
  #########################################
    occupation_type    gaussian 0.000001
    mixer              pulay
      n_max_pulay        10
      charge_mix_param   0.2
    sc_accuracy_rho    1E-5
    sc_accuracy_eev    1E-5
    sc_accuracy_etot   1E-5
    sc_iter_limit      400
  #########################################
    prodbas_threshold  1.e-5
    KS_method          serial
    empty_states       25000
    # Do not check for overlapping xxx matrix
    # Not recommended
    # Necessary for large basis sets
    override_illconditioning .true.
    #basis_threshold 1.e-5
  #########################################
  ################################################################################
  #
  #  FHI-aims code project
  #  VB, Fritz-Haber Institut, 2007
  #
  #  Suggested "safe" defaults for B atom (to be pasted into control.in file)
  #
  ################################################################################
    species        B
  #     global species definitions
      nucleus             5
      mass                10.811
  #
      l_hartree           8
  #
      cut_pot             4.0  2.0  1.0
      basis_dep_cutoff    0.d0
  #
      radial_base         32 7.0
      radial_multiplier   2
      angular_grids       specified
        division   0.3742  110
        division   0.5197  194
        division   0.5753  302
        division   0.7664  434
  #      division   0.8392  770
  #      division   1.6522  974
  #      outer_grid   974
        outer_grid   590
  ################################################################################
  #
  #  Definition of "minimal" basis
  #
  ################################################################################
  #     valence basis states
      valence      2  s   2.
      valence      2  p   1.
  #     ion occupancy
      ion_occ      2  s   1.
  
  
  
              # The default minimal basis should not be included
              include_min_basis .false.
              # Use spherical functions?
              pure_gauss .true.
              # B def2-QZVP
  gaussian 0 8
  46447.6670560              0.38388681014E-04
   6957.6889042              0.29836770197E-03
   1583.4428403              0.15645478806E-02
    448.46601009             0.65476770742E-02
    146.28639262             0.23139008388E-01
     52.784386084            0.69615799357E-01
     20.519396170            0.17119636876
      8.4185659258           0.31913191837
  gaussian 0 2
     36.510018312            0.78990617244E-01
     10.541854005            0.78926384265
  gaussian 0 1 3.6004091387
  gaussian 0 1 1.5617023749
  gaussian 0 1 0.44997370775
  gaussian 0 1 0.18075230237
  gaussian 0 1 0.71596696319E-01
  gaussian 1 5
     72.240462760            0.86539170411E-03
     16.807707208            0.68762067365E-02
      5.2259410747           0.30976687148E-01
      1.8508350671           0.10432357913
      0.72206782663          0.26164137577
  gaussian 1 1 0.29491018056
  gaussian 1 1 0.12201141839
  gaussian 1 1 0.49865393625E-01
  gaussian 2 1 1.11000000
  gaussian 2 1 0.40200000
  gaussian 2 1 0.14500000
  gaussian 3 1 0.88200000
  gaussian 3 1 0.31100000
  gaussian 4 1 0.67300000
  
  ################################################################################
  #
  #  FHI-aims code project
  #  VB, Fritz-Haber Institut, 2007
  #
  #  Suggested "safe" defaults for N atom (to be pasted into control.in file)
  #
  ################################################################################
    species        N
  #     global species definitions
      nucleus             7
      mass                14.0067
  #
      l_hartree           8
  #
      cut_pot             4.0  2.0  1.0
      basis_dep_cutoff    0.d0
  #
      radial_base         35 7.0
      radial_multiplier   2
      angular_grids       specified
        division   0.3806  110
        division   0.5126  194
        division   0.5309  302
        division   0.7632  434
  #      division   0.7874  770
  #      division   3.0496  974
  #      outer_grid  974
        outer_grid  590
  ################################################################################
  #
  #  Definition of "minimal" basis
  #
  ################################################################################
  #     valence basis states
      valence      2  s   2.
      valence      2  p   3.
  #     ion occupancy
      ion_occ      2  s   1.
      ion_occ      2  p   2.
  
  
              # The default minimal basis should not be included
              include_min_basis .false.
              # Use spherical functions?
              pure_gauss .true.
              # N def2-QZVP
  gaussian 0 8
  90726.8892100              0.39257887368E-04
  13590.5288010              0.30513316455E-03
   3092.9883781              0.16000560446E-02
    875.99876362             0.66982937306E-02
    285.74469982             0.23690078765E-01
    103.11913417             0.71455405268E-01
     40.128556777            0.17632774876
     16.528095704            0.32677592815
  gaussian 0 2
     69.390960983            0.80052094386E-01
     20.428200596            0.78268063538
  gaussian 0 1 7.1292587972
  gaussian 0 1 3.1324304893
  gaussian 0 1 0.98755778723
  gaussian 0 1 0.38765721307
  gaussian 0 1 0.14909883075
  gaussian 1 5
    150.05742670            -0.86216165986E-03
     35.491599483           -0.68571273236E-02
     11.247864223           -0.31795688855E-01
      4.0900305195          -0.10537396822
      1.6220573146          -0.24519708041
  gaussian 1 1 0.66442261530
  gaussian 1 1 0.27099770070
  gaussian 1 1 0.10688749984
  gaussian 2 1 2.83700000
  gaussian 2 1 0.96800000
  gaussian 2 1 0.33500000
  gaussian 3 1 2.02700000
  gaussian 3 1 0.68500000
  gaussian 4 1 1.42700000
  
  
  
  -----------------------------------------------------------------------
  Completed first pass over input file control.in .
  -----------------------------------------------------------------------
  
  
  -----------------------------------------------------------------------
  Parsing geometry.in (first pass over file, find array dimensions only).
  The contents of geometry.in will be repeated verbatim below
  unless switched off by setting 'verbatim_writeout .false.' .
  in the first line of geometry.in .
  -----------------------------------------------------------------------
  
  atom 0.0000 0.0000 0.0000 B
  atom 0.0000 0.0000 1.281  N
  
  
  -----------------------------------------------------------------------
  Completed first pass over input file geometry.in .
  -----------------------------------------------------------------------
  

  Basic array size parameters:
  | Number of species                 :        2
  | Number of atoms                   :        2
  | Max. basis fn. angular momentum   :        4
  | Max. atomic/ionic basis occupied n:        2
  | Max. number of basis fn. types    :        1
  | Max. radial fns per species/type  :       24
  | Max. logarithmic grid size        :     1290
  | Max. radial integration grid size :       71
  | Max. angular integration grid size:      590
  | Max. angular grid division number :        8
  | Radial grid for Hartree potential :     1290
  | Number of spin channels           :        1

------------------------------------------------------------
          Reading file control.in.
------------------------------------------------------------
  XC: Using PBE gradient-corrected functionals.
  Eigenvalue self-consistent GW0 quasiparticle calculation (without MO update) of excited state will be started after the DFT/HF calculation.
  Spin treatment: No spin polarisation.
  Number of iterations for ev_scGW or ev_scGW0 with CD:    20
  Number of frequency points used for the self-energy calculation:   2000
  Evaluate full complex self energy for CD (including complex integral term).
  Using Pade approximation for analytical continuation.
  Number of fitting parameters for analytical continuation :    128
  Contour deformation in GW for the levels:      1     to      17
  Number of occupied states explicity calculated in ev_scGW or ev_scGW0 with CD:    10 for spin   1
  Number of virtual states explicity calculated in ev_scGW or ev_scGW0 with CD:     10 for spin   1
  Number of iterations for ev_scGW or ev_scGW0 with CD:    40
  Try zshot if QP energies do not converge within ev_scGW or ev_scGW0 with CD
  Broadening parameter eta:       0.004000
  Lower limit of the eigenstates for the self-energy correction :      1
  Upper limit of the eigenstates for the self-energy correction :    500
  Non-relativistic treatment of kinetic energy.
  override_relativity: Explicitly overriding any built-in relativity checks.
  If you use this flag, you should really know what you are doing.
  Partition function in integrals calculations: rho / r^2
  Spectral function will be calculated from:   -20.000   to        0.000  eV
  Occupation type: Gaussian broadening, width =   0.100000E-05 eV.
  Using pulay charge density mixing.
  Pulay mixing - number of memorized iterations:   10
  Charge density mixing - mixing parameter:     0.2000
  Convergence accuracy of self-consistent charge density:  0.1000E-04
  Convergence accuracy of sum of eigenvalues:  0.1000E-04
  Convergence accuracy of total energy:  0.1000E-04
  Maximum number of s.-c. iterations  :   400
  Threshold for auxiliary basis singularities:  0.1000E-04
  Kohn-Sham eigenvalues and eigenfunctions calculated by LAPACK via ELSI.
  Number of empty states per atom:    25000
  override_illconditioning: Explicitly overriding any built-in checks for an ill-conditioned overlap matrix.
  *** WARNING: If you use this flag, you should really know what you are doing.
  *** DO NOT keep this flag set by default in all your control.in files.

  Reading configuration options for species B                   .
  | Found nuclear charge :   5.0000
  | Found atomic mass :    10.811000000000000      amu
  | Found l_max for Hartree potential  :   8
  | Found cutoff potl. onset [A], width [A], scale factor :    4.00000    2.00000    1.00000
  | Threshold for basis-dependent cutoff potential is   0.000000E+00
  | Found data for basic radial integration grid :    32 points, outermost radius =    7.000 A
  | Found multiplier for basic radial grid :   2
  | Found angular grid specification: user-specified.
  | Specified grid contains     5 separate shells.
  | Check grid settings after all constraints further below.
  | Found free-atom valence shell :  2 s   2.000
  | Found free-atom valence shell :  2 p   1.000
  | No ionic wave fns used. Skipping ion_occ.
  | Found request to include minimal basis fns. :     F
  | Found request to include pure gaussian fns. :     T
  | Found contracted cartesian Gaussian basis function :  L = 0 ,   8 elementary Gaussians:
  |   alpha = 0.464477E+05 weight = 0.383887E-04
  |   alpha = 0.695769E+04 weight = 0.298368E-03
  |   alpha = 0.158344E+04 weight = 0.156455E-02
  |   alpha = 0.448466E+03 weight = 0.654768E-02
  |   alpha = 0.146286E+03 weight = 0.231390E-01
  |   alpha = 0.527844E+02 weight = 0.696158E-01
  |   alpha = 0.205194E+02 weight = 0.171196E+00
  |   alpha = 0.841857E+01 weight = 0.319132E+00
  |   In terms of angular momentum, this radial function adds: 
  |     1 s-type basis function
  | Found contracted cartesian Gaussian basis function :  L = 0 ,   2 elementary Gaussians:
  |   alpha = 0.365100E+02 weight = 0.789906E-01
  |   alpha = 0.105419E+02 weight = 0.789264E+00
  |   In terms of angular momentum, this radial function adds: 
  |     1 s-type basis function
  | Found primitive cartesian Gaussian basis function :  0 0.360041E+01
  |   In terms of angular momentum, this radial function adds: 
  |     1 s-type basis function
  | Found primitive cartesian Gaussian basis function :  0 0.156170E+01
  |   In terms of angular momentum, this radial function adds: 
  |     1 s-type basis function
  | Found primitive cartesian Gaussian basis function :  0 0.449974E+00
  |   In terms of angular momentum, this radial function adds: 
  |     1 s-type basis function
  | Found primitive cartesian Gaussian basis function :  0 0.180752E+00
  |   In terms of angular momentum, this radial function adds: 
  |     1 s-type basis function
  | Found primitive cartesian Gaussian basis function :  0 0.715967E-01
  |   In terms of angular momentum, this radial function adds: 
  |     1 s-type basis function
  | Found contracted cartesian Gaussian basis function :  L = 1 ,   5 elementary Gaussians:
  |   alpha = 0.722405E+02 weight = 0.865392E-03
  |   alpha = 0.168077E+02 weight = 0.687621E-02
  |   alpha = 0.522594E+01 weight = 0.309767E-01
  |   alpha = 0.185084E+01 weight = 0.104324E+00
  |   alpha = 0.722068E+00 weight = 0.261641E+00
  |   In terms of angular momentum, this radial function adds: 
  |     3 p-type basis functions
  | Found primitive cartesian Gaussian basis function :  1 0.294910E+00
  |   In terms of angular momentum, this radial function adds: 
  |     3 p-type basis functions
  | Found primitive cartesian Gaussian basis function :  1 0.122011E+00
  |   In terms of angular momentum, this radial function adds: 
  |     3 p-type basis functions
  | Found primitive cartesian Gaussian basis function :  1 0.498654E-01
  |   In terms of angular momentum, this radial function adds: 
  |     3 p-type basis functions
  | Found primitive cartesian Gaussian basis function :  2 0.111000E+01
  |   In terms of angular momentum, this radial function adds: 
  |     5 d-type basis functions
  | Found primitive cartesian Gaussian basis function :  2 0.402000E+00
  |   In terms of angular momentum, this radial function adds: 
  |     5 d-type basis functions
  | Found primitive cartesian Gaussian basis function :  2 0.145000E+00
  |   In terms of angular momentum, this radial function adds: 
  |     5 d-type basis functions
  | Found primitive cartesian Gaussian basis function :  3 0.882000E+00
  |   In terms of angular momentum, this radial function adds: 
  |     7 f-type basis functions
  | Found primitive cartesian Gaussian basis function :  3 0.311000E+00
  |   In terms of angular momentum, this radial function adds: 
  |     7 f-type basis functions
  | Found primitive cartesian Gaussian basis function :  4 0.673000E+00
  |   In terms of angular momentum, this radial function adds: 
  |     9 g-type basis functions
  Species B                   : Missing cutoff potential type.
  Defaulting to exp(1/x)/(1-x)^2 type cutoff potential.
  Species B : No 'logarithmic' tag. Using default grid for free atom:
  | Default logarithmic grid data [bohr] : 0.1000E-03 0.1000E+03 0.1012E+01
  Species B : On-site basis accuracy parameter (for Gram-Schmidt orthonormalisation) not specified.
  Using default value basis_acc =  0.1000000E-03.
  Species B                   : Using default innermost maximum threshold i_radial=  2 for radial functions.
  Species B                   : Default cutoff onset for free atom density etc. is infinite
  since the product basis is used (hybrid functionals, Hartree-Fock, GW etc.).
  Species B                   : Basic radial grid will be enhanced according to radial_multiplier =   2, to contain    65 grid points.

  Reading configuration options for species N                   .
  | Found nuclear charge :   7.0000
  | Found atomic mass :    14.006700000000000      amu
  | Found l_max for Hartree potential  :   8
  | Found cutoff potl. onset [A], width [A], scale factor :    4.00000    2.00000    1.00000
  | Threshold for basis-dependent cutoff potential is   0.000000E+00
  | Found data for basic radial integration grid :    35 points, outermost radius =    7.000 A
  | Found multiplier for basic radial grid :   2
  | Found angular grid specification: user-specified.
  | Specified grid contains     5 separate shells.
  | Check grid settings after all constraints further below.
  | Found free-atom valence shell :  2 s   2.000
  | Found free-atom valence shell :  2 p   3.000
  | No ionic wave fns used. Skipping ion_occ.
  | No ionic wave fns used. Skipping ion_occ.
  | Found request to include minimal basis fns. :     F
  | Found request to include pure gaussian fns. :     T
  | Found contracted cartesian Gaussian basis function :  L = 0 ,   8 elementary Gaussians:
  |   alpha = 0.907269E+05 weight = 0.392579E-04
  |   alpha = 0.135905E+05 weight = 0.305133E-03
  |   alpha = 0.309299E+04 weight = 0.160006E-02
  |   alpha = 0.875999E+03 weight = 0.669829E-02
  |   alpha = 0.285745E+03 weight = 0.236901E-01
  |   alpha = 0.103119E+03 weight = 0.714554E-01
  |   alpha = 0.401286E+02 weight = 0.176328E+00
  |   alpha = 0.165281E+02 weight = 0.326776E+00
  |   In terms of angular momentum, this radial function adds: 
  |     1 s-type basis function
  | Found contracted cartesian Gaussian basis function :  L = 0 ,   2 elementary Gaussians:
  |   alpha = 0.693910E+02 weight = 0.800521E-01
  |   alpha = 0.204282E+02 weight = 0.782681E+00
  |   In terms of angular momentum, this radial function adds: 
  |     1 s-type basis function
  | Found primitive cartesian Gaussian basis function :  0 0.712926E+01
  |   In terms of angular momentum, this radial function adds: 
  |     1 s-type basis function
  | Found primitive cartesian Gaussian basis function :  0 0.313243E+01
  |   In terms of angular momentum, this radial function adds: 
  |     1 s-type basis function
  | Found primitive cartesian Gaussian basis function :  0 0.987558E+00
  |   In terms of angular momentum, this radial function adds: 
  |     1 s-type basis function
  | Found primitive cartesian Gaussian basis function :  0 0.387657E+00
  |   In terms of angular momentum, this radial function adds: 
  |     1 s-type basis function
  | Found primitive cartesian Gaussian basis function :  0 0.149099E+00
  |   In terms of angular momentum, this radial function adds: 
  |     1 s-type basis function
  | Found contracted cartesian Gaussian basis function :  L = 1 ,   5 elementary Gaussians:
  |   alpha = 0.150057E+03 weight = -.862162E-03
  |   alpha = 0.354916E+02 weight = -.685713E-02
  |   alpha = 0.112479E+02 weight = -.317957E-01
  |   alpha = 0.409003E+01 weight = -.105374E+00
  |   alpha = 0.162206E+01 weight = -.245197E+00
  |   In terms of angular momentum, this radial function adds: 
  |     3 p-type basis functions
  | Found primitive cartesian Gaussian basis function :  1 0.664423E+00
  |   In terms of angular momentum, this radial function adds: 
  |     3 p-type basis functions
  | Found primitive cartesian Gaussian basis function :  1 0.270998E+00
  |   In terms of angular momentum, this radial function adds: 
  |     3 p-type basis functions
  | Found primitive cartesian Gaussian basis function :  1 0.106887E+00
  |   In terms of angular momentum, this radial function adds: 
  |     3 p-type basis functions
  | Found primitive cartesian Gaussian basis function :  2 0.283700E+01
  |   In terms of angular momentum, this radial function adds: 
  |     5 d-type basis functions
  | Found primitive cartesian Gaussian basis function :  2 0.968000E+00
  |   In terms of angular momentum, this radial function adds: 
  |     5 d-type basis functions
  | Found primitive cartesian Gaussian basis function :  2 0.335000E+00
  |   In terms of angular momentum, this radial function adds: 
  |     5 d-type basis functions
  | Found primitive cartesian Gaussian basis function :  3 0.202700E+01
  |   In terms of angular momentum, this radial function adds: 
  |     7 f-type basis functions
  | Found primitive cartesian Gaussian basis function :  3 0.685000E+00
  |   In terms of angular momentum, this radial function adds: 
  |     7 f-type basis functions
  | Found primitive cartesian Gaussian basis function :  4 0.142700E+01
  |   In terms of angular momentum, this radial function adds: 
  |     9 g-type basis functions
  Species N                   : Missing cutoff potential type.
  Defaulting to exp(1/x)/(1-x)^2 type cutoff potential.
  Species N : No 'logarithmic' tag. Using default grid for free atom:
  | Default logarithmic grid data [bohr] : 0.1000E-03 0.1000E+03 0.1012E+01
  Species N : On-site basis accuracy parameter (for Gram-Schmidt orthonormalisation) not specified.
  Using default value basis_acc =  0.1000000E-03.
  Species N                   : Using default innermost maximum threshold i_radial=  2 for radial functions.
  Species N                   : Default cutoff onset for free atom density etc. is infinite
  since the product basis is used (hybrid functionals, Hartree-Fock, GW etc.).
  Species N                   : Basic radial grid will be enhanced according to radial_multiplier =   2, to contain    71 grid points.

  Finished reading input file 'control.in'.

------------------------------------------------------------


------------------------------------------------------------
          Reading geometry description geometry.in.
------------------------------------------------------------
  | The smallest distance between any two atoms is         1.28100000 AA.
  | The first atom of this pair is atom number                      1 .
  | The second atom of this pair is atom number                     2 .
  Input structure read successfully.
  The structure contains        2 atoms,  and a total of         12.000 electrons.

  Input geometry:
  | No unit cell requested.
  | Atomic structure:
  |       Atom                x [A]            y [A]            z [A]
  |    1: Species B             0.00000000        0.00000000        0.00000000
  |    2: Species N             0.00000000        0.00000000        1.28100000


  Finished reading input file 'geometry.in'.



  Consistency checks for stacksize environment parameter are next.

  | Maximum stacksize for task 0: unlimited
  | Maximum stacksize for task 1: unlimited
  | Maximum stacksize for task 2: unlimited
  | Maximum stacksize for task 3: unlimited
  | Maximum stacksize for task 4: unlimited
  | Maximum stacksize for task 5: unlimited
  | Maximum stacksize for task 6: unlimited
  | Maximum stacksize for task 7: unlimited
  | Maximum stacksize for task 8: unlimited
  | Maximum stacksize for task 9: unlimited
  | Maximum stacksize for task 10: unlimited
  | Maximum stacksize for task 11: unlimited
  | Maximum stacksize for task 12: unlimited
  | Maximum stacksize for task 13: unlimited
  | Maximum stacksize for task 14: unlimited
  | Maximum stacksize for task 15: unlimited
  | Maximum stacksize for task 16: unlimited
  | Maximum stacksize for task 17: unlimited
  | Maximum stacksize for task 18: unlimited
  | Maximum stacksize for task 19: unlimited
  | Maximum stacksize for task 20: unlimited
  | Maximum stacksize for task 21: unlimited
  | Maximum stacksize for task 22: unlimited
  | Maximum stacksize for task 23: unlimited
  | Maximum stacksize for task 24: unlimited
  | Maximum stacksize for task 25: unlimited
  | Maximum stacksize for task 26: unlimited
  | Maximum stacksize for task 27: unlimited
  | Maximum stacksize for task 28: unlimited
  | Maximum stacksize for task 29: unlimited
  | Maximum stacksize for task 30: unlimited
  | Maximum stacksize for task 31: unlimited
  | Maximum stacksize for task 32: unlimited
  | Maximum stacksize for task 33: unlimited
  | Maximum stacksize for task 34: unlimited
  | Maximum stacksize for task 35: unlimited
  | Maximum stacksize for task 36: unlimited
  | Maximum stacksize for task 37: unlimited
  | Maximum stacksize for task 38: unlimited
  | Maximum stacksize for task 39: unlimited
  | Maximum stacksize for task 40: unlimited
  | Maximum stacksize for task 41: unlimited
  | Maximum stacksize for task 42: unlimited
  | Maximum stacksize for task 43: unlimited
  | Maximum stacksize for task 44: unlimited
  | Maximum stacksize for task 45: unlimited
  | Maximum stacksize for task 46: unlimited
  | Maximum stacksize for task 47: unlimited
  | Maximum stacksize for task 48: unlimited
  | Maximum stacksize for task 49: unlimited
  | Maximum stacksize for task 50: unlimited
  | Maximum stacksize for task 51: unlimited
  | Maximum stacksize for task 52: unlimited
  | Maximum stacksize for task 53: unlimited
  | Maximum stacksize for task 54: unlimited
  | Maximum stacksize for task 55: unlimited
  | Maximum stacksize for task 56: unlimited
  | Maximum stacksize for task 57: unlimited
  | Maximum stacksize for task 58: unlimited
  | Maximum stacksize for task 59: unlimited
  | Maximum stacksize for task 60: unlimited
  | Maximum stacksize for task 61: unlimited
  | Maximum stacksize for task 62: unlimited
  | Maximum stacksize for task 63: unlimited
  | Maximum stacksize for task 64: unlimited
  | Maximum stacksize for task 65: unlimited
  | Maximum stacksize for task 66: unlimited
  | Maximum stacksize for task 67: unlimited
  | Maximum stacksize for task 68: unlimited
  | Maximum stacksize for task 69: unlimited
  | Maximum stacksize for task 70: unlimited
  | Maximum stacksize for task 71: unlimited
  | Maximum stacksize for task 72: unlimited
  | Maximum stacksize for task 73: unlimited
  | Maximum stacksize for task 74: unlimited
  | Maximum stacksize for task 75: unlimited
  | Maximum stacksize for task 76: unlimited
  | Maximum stacksize for task 77: unlimited
  | Maximum stacksize for task 78: unlimited
  | Maximum stacksize for task 79: unlimited
  | Maximum stacksize for task 80: unlimited
  | Maximum stacksize for task 81: unlimited
  | Maximum stacksize for task 82: unlimited
  | Maximum stacksize for task 83: unlimited
  | Maximum stacksize for task 84: unlimited
  | Maximum stacksize for task 85: unlimited
  | Maximum stacksize for task 86: unlimited
  | Maximum stacksize for task 87: unlimited
  | Maximum stacksize for task 88: unlimited
  | Maximum stacksize for task 89: unlimited
  | Maximum stacksize for task 90: unlimited
  | Maximum stacksize for task 91: unlimited
  | Maximum stacksize for task 92: unlimited
  | Maximum stacksize for task 93: unlimited
  | Maximum stacksize for task 94: unlimited
  | Maximum stacksize for task 95: unlimited
  | Maximum stacksize for task 96: unlimited
  | Maximum stacksize for task 97: unlimited
  | Maximum stacksize for task 98: unlimited
  | Maximum stacksize for task 99: unlimited
  | Maximum stacksize for task 100: unlimited
  | Maximum stacksize for task 101: unlimited
  | Maximum stacksize for task 102: unlimited
  | Maximum stacksize for task 103: unlimited
  | Maximum stacksize for task 104: unlimited
  | Maximum stacksize for task 105: unlimited
  | Maximum stacksize for task 106: unlimited
  | Maximum stacksize for task 107: unlimited
  | Maximum stacksize for task 108: unlimited
  | Maximum stacksize for task 109: unlimited
  | Maximum stacksize for task 110: unlimited
  | Maximum stacksize for task 111: unlimited
  | Maximum stacksize for task 112: unlimited
  | Maximum stacksize for task 113: unlimited
  | Maximum stacksize for task 114: unlimited
  | Maximum stacksize for task 115: unlimited
  | Maximum stacksize for task 116: unlimited
  | Maximum stacksize for task 117: unlimited
  | Maximum stacksize for task 118: unlimited
  | Maximum stacksize for task 119: unlimited
  | Maximum stacksize for task 120: unlimited
  | Maximum stacksize for task 121: unlimited
  | Maximum stacksize for task 122: unlimited
  | Maximum stacksize for task 123: unlimited
  | Maximum stacksize for task 124: unlimited
  | Maximum stacksize for task 125: unlimited
  | Maximum stacksize for task 126: unlimited
  | Maximum stacksize for task 127: unlimited
  | Maximum stacksize for task 128: unlimited
  | Maximum stacksize for task 129: unlimited
  | Maximum stacksize for task 130: unlimited
  | Maximum stacksize for task 131: unlimited
  | Maximum stacksize for task 132: unlimited
  | Maximum stacksize for task 133: unlimited
  | Maximum stacksize for task 134: unlimited
  | Maximum stacksize for task 135: unlimited
  | Maximum stacksize for task 136: unlimited
  | Maximum stacksize for task 137: unlimited
  | Maximum stacksize for task 138: unlimited
  | Maximum stacksize for task 139: unlimited
  | Maximum stacksize for task 140: unlimited
  | Maximum stacksize for task 141: unlimited
  | Maximum stacksize for task 142: unlimited
  | Maximum stacksize for task 143: unlimited
  | Maximum stacksize for task 144: unlimited
  | Maximum stacksize for task 145: unlimited
  | Maximum stacksize for task 146: unlimited
  | Maximum stacksize for task 147: unlimited
  | Maximum stacksize for task 148: unlimited
  | Maximum stacksize for task 149: unlimited
  | Maximum stacksize for task 150: unlimited
  | Maximum stacksize for task 151: unlimited
  | Maximum stacksize for task 152: unlimited
  | Maximum stacksize for task 153: unlimited
  | Maximum stacksize for task 154: unlimited
  | Maximum stacksize for task 155: unlimited
  | Maximum stacksize for task 156: unlimited
  | Maximum stacksize for task 157: unlimited
  | Maximum stacksize for task 158: unlimited
  | Maximum stacksize for task 159: unlimited
  | Maximum stacksize for task 160: unlimited
  | Maximum stacksize for task 161: unlimited
  | Maximum stacksize for task 162: unlimited
  | Maximum stacksize for task 163: unlimited
  | Maximum stacksize for task 164: unlimited
  | Maximum stacksize for task 165: unlimited
  | Maximum stacksize for task 166: unlimited
  | Maximum stacksize for task 167: unlimited
  | Maximum stacksize for task 168: unlimited
  | Maximum stacksize for task 169: unlimited
  | Maximum stacksize for task 170: unlimited
  | Maximum stacksize for task 171: unlimited
  | Maximum stacksize for task 172: unlimited
  | Maximum stacksize for task 173: unlimited
  | Maximum stacksize for task 174: unlimited
  | Maximum stacksize for task 175: unlimited
  | Maximum stacksize for task 176: unlimited
  | Maximum stacksize for task 177: unlimited
  | Maximum stacksize for task 178: unlimited
  | Maximum stacksize for task 179: unlimited
  | Maximum stacksize for task 180: unlimited
  | Maximum stacksize for task 181: unlimited
  | Maximum stacksize for task 182: unlimited
  | Maximum stacksize for task 183: unlimited
  | Maximum stacksize for task 184: unlimited
  | Maximum stacksize for task 185: unlimited
  | Maximum stacksize for task 186: unlimited
  | Maximum stacksize for task 187: unlimited
  | Maximum stacksize for task 188: unlimited
  | Maximum stacksize for task 189: unlimited
  | Maximum stacksize for task 190: unlimited
  | Maximum stacksize for task 191: unlimited
  | Maximum stacksize for task 192: unlimited
  | Maximum stacksize for task 193: unlimited
  | Maximum stacksize for task 194: unlimited
  | Maximum stacksize for task 195: unlimited
  | Maximum stacksize for task 196: unlimited
  | Maximum stacksize for task 197: unlimited
  | Maximum stacksize for task 198: unlimited
  | Maximum stacksize for task 199: unlimited
  | Maximum stacksize for task 200: unlimited
  | Maximum stacksize for task 201: unlimited
  | Maximum stacksize for task 202: unlimited
  | Maximum stacksize for task 203: unlimited
  | Maximum stacksize for task 204: unlimited
  | Maximum stacksize for task 205: unlimited
  | Maximum stacksize for task 206: unlimited
  | Maximum stacksize for task 207: unlimited
  | Maximum stacksize for task 208: unlimited
  | Maximum stacksize for task 209: unlimited
  | Maximum stacksize for task 210: unlimited
  | Maximum stacksize for task 211: unlimited
  | Maximum stacksize for task 212: unlimited
  | Maximum stacksize for task 213: unlimited
  | Maximum stacksize for task 214: unlimited
  | Maximum stacksize for task 215: unlimited
  | Maximum stacksize for task 216: unlimited
  | Maximum stacksize for task 217: unlimited
  | Maximum stacksize for task 218: unlimited
  | Maximum stacksize for task 219: unlimited
  | Maximum stacksize for task 220: unlimited
  | Maximum stacksize for task 221: unlimited
  | Maximum stacksize for task 222: unlimited
  | Maximum stacksize for task 223: unlimited
  | Maximum stacksize for task 224: unlimited
  | Maximum stacksize for task 225: unlimited
  | Maximum stacksize for task 226: unlimited
  | Maximum stacksize for task 227: unlimited
  | Maximum stacksize for task 228: unlimited
  | Maximum stacksize for task 229: unlimited
  | Maximum stacksize for task 230: unlimited
  | Maximum stacksize for task 231: unlimited
  | Maximum stacksize for task 232: unlimited
  | Maximum stacksize for task 233: unlimited
  | Maximum stacksize for task 234: unlimited
  | Maximum stacksize for task 235: unlimited
  | Maximum stacksize for task 236: unlimited
  | Maximum stacksize for task 237: unlimited
  | Maximum stacksize for task 238: unlimited
  | Maximum stacksize for task 239: unlimited
  | Maximum stacksize for task 240: unlimited
  | Maximum stacksize for task 241: unlimited
  | Maximum stacksize for task 242: unlimited
  | Maximum stacksize for task 243: unlimited
  | Maximum stacksize for task 244: unlimited
  | Maximum stacksize for task 245: unlimited
  | Maximum stacksize for task 246: unlimited
  | Maximum stacksize for task 247: unlimited
  | Maximum stacksize for task 248: unlimited
  | Maximum stacksize for task 249: unlimited
  | Maximum stacksize for task 250: unlimited
  | Maximum stacksize for task 251: unlimited
  | Maximum stacksize for task 252: unlimited
  | Maximum stacksize for task 253: unlimited
  | Maximum stacksize for task 254: unlimited
  | Maximum stacksize for task 255: unlimited
  | Maximum stacksize for task 256: unlimited
  | Maximum stacksize for task 257: unlimited
  | Maximum stacksize for task 258: unlimited
  | Maximum stacksize for task 259: unlimited
  | Maximum stacksize for task 260: unlimited
  | Maximum stacksize for task 261: unlimited
  | Maximum stacksize for task 262: unlimited
  | Maximum stacksize for task 263: unlimited
  | Maximum stacksize for task 264: unlimited
  | Maximum stacksize for task 265: unlimited
  | Maximum stacksize for task 266: unlimited
  | Maximum stacksize for task 267: unlimited
  | Maximum stacksize for task 268: unlimited
  | Maximum stacksize for task 269: unlimited
  | Maximum stacksize for task 270: unlimited
  | Maximum stacksize for task 271: unlimited
  | Maximum stacksize for task 272: unlimited
  | Maximum stacksize for task 273: unlimited
  | Maximum stacksize for task 274: unlimited
  | Maximum stacksize for task 275: unlimited
  | Maximum stacksize for task 276: unlimited
  | Maximum stacksize for task 277: unlimited
  | Maximum stacksize for task 278: unlimited
  | Maximum stacksize for task 279: unlimited
  | Maximum stacksize for task 280: unlimited
  | Maximum stacksize for task 281: unlimited
  | Maximum stacksize for task 282: unlimited
  | Maximum stacksize for task 283: unlimited
  | Maximum stacksize for task 284: unlimited
  | Maximum stacksize for task 285: unlimited
  | Maximum stacksize for task 286: unlimited
  | Maximum stacksize for task 287: unlimited
  | Maximum stacksize for task 288: unlimited
  | Maximum stacksize for task 289: unlimited
  | Maximum stacksize for task 290: unlimited
  | Maximum stacksize for task 291: unlimited
  | Maximum stacksize for task 292: unlimited
  | Maximum stacksize for task 293: unlimited
  | Maximum stacksize for task 294: unlimited
  | Maximum stacksize for task 295: unlimited
  | Maximum stacksize for task 296: unlimited
  | Maximum stacksize for task 297: unlimited
  | Maximum stacksize for task 298: unlimited
  | Maximum stacksize for task 299: unlimited
  | Maximum stacksize for task 300: unlimited
  | Maximum stacksize for task 301: unlimited
  | Maximum stacksize for task 302: unlimited
  | Maximum stacksize for task 303: unlimited
  | Maximum stacksize for task 304: unlimited
  | Maximum stacksize for task 305: unlimited
  | Maximum stacksize for task 306: unlimited
  | Maximum stacksize for task 307: unlimited
  | Maximum stacksize for task 308: unlimited
  | Maximum stacksize for task 309: unlimited
  | Maximum stacksize for task 310: unlimited
  | Maximum stacksize for task 311: unlimited
  | Maximum stacksize for task 312: unlimited
  | Maximum stacksize for task 313: unlimited
  | Maximum stacksize for task 314: unlimited
  | Maximum stacksize for task 315: unlimited
  | Maximum stacksize for task 316: unlimited
  | Maximum stacksize for task 317: unlimited
  | Maximum stacksize for task 318: unlimited
  | Maximum stacksize for task 319: unlimited
  | Maximum stacksize for task 320: unlimited
  | Maximum stacksize for task 321: unlimited
  | Maximum stacksize for task 322: unlimited
  | Maximum stacksize for task 323: unlimited
  | Maximum stacksize for task 324: unlimited
  | Maximum stacksize for task 325: unlimited
  | Maximum stacksize for task 326: unlimited
  | Maximum stacksize for task 327: unlimited
  | Maximum stacksize for task 328: unlimited
  | Maximum stacksize for task 329: unlimited
  | Maximum stacksize for task 330: unlimited
  | Maximum stacksize for task 331: unlimited
  | Maximum stacksize for task 332: unlimited
  | Maximum stacksize for task 333: unlimited
  | Maximum stacksize for task 334: unlimited
  | Maximum stacksize for task 335: unlimited
  | Maximum stacksize for task 336: unlimited
  | Maximum stacksize for task 337: unlimited
  | Maximum stacksize for task 338: unlimited
  | Maximum stacksize for task 339: unlimited
  | Maximum stacksize for task 340: unlimited
  | Maximum stacksize for task 341: unlimited
  | Maximum stacksize for task 342: unlimited
  | Maximum stacksize for task 343: unlimited
  | Maximum stacksize for task 344: unlimited
  | Maximum stacksize for task 345: unlimited
  | Maximum stacksize for task 346: unlimited
  | Maximum stacksize for task 347: unlimited
  | Maximum stacksize for task 348: unlimited
  | Maximum stacksize for task 349: unlimited
  | Maximum stacksize for task 350: unlimited
  | Maximum stacksize for task 351: unlimited
  | Maximum stacksize for task 352: unlimited
  | Maximum stacksize for task 353: unlimited
  | Maximum stacksize for task 354: unlimited
  | Maximum stacksize for task 355: unlimited
  | Maximum stacksize for task 356: unlimited
  | Maximum stacksize for task 357: unlimited
  | Maximum stacksize for task 358: unlimited
  | Maximum stacksize for task 359: unlimited
  | Maximum stacksize for task 360: unlimited
  | Maximum stacksize for task 361: unlimited
  | Maximum stacksize for task 362: unlimited
  | Maximum stacksize for task 363: unlimited
  | Maximum stacksize for task 364: unlimited
  | Maximum stacksize for task 365: unlimited
  | Maximum stacksize for task 366: unlimited
  | Maximum stacksize for task 367: unlimited
  | Maximum stacksize for task 368: unlimited
  | Maximum stacksize for task 369: unlimited
  | Maximum stacksize for task 370: unlimited
  | Maximum stacksize for task 371: unlimited
  | Maximum stacksize for task 372: unlimited
  | Maximum stacksize for task 373: unlimited
  | Maximum stacksize for task 374: unlimited
  | Maximum stacksize for task 375: unlimited
  | Maximum stacksize for task 376: unlimited
  | Maximum stacksize for task 377: unlimited
  | Maximum stacksize for task 378: unlimited
  | Maximum stacksize for task 379: unlimited
  | Maximum stacksize for task 380: unlimited
  | Maximum stacksize for task 381: unlimited
  | Maximum stacksize for task 382: unlimited
  | Maximum stacksize for task 383: unlimited
  | Maximum stacksize for task 384: unlimited
  | Maximum stacksize for task 385: unlimited
  | Maximum stacksize for task 386: unlimited
  | Maximum stacksize for task 387: unlimited
  | Maximum stacksize for task 388: unlimited
  | Maximum stacksize for task 389: unlimited
  | Maximum stacksize for task 390: unlimited
  | Maximum stacksize for task 391: unlimited
  | Maximum stacksize for task 392: unlimited
  | Maximum stacksize for task 393: unlimited
  | Maximum stacksize for task 394: unlimited
  | Maximum stacksize for task 395: unlimited
  | Maximum stacksize for task 396: unlimited
  | Maximum stacksize for task 397: unlimited
  | Maximum stacksize for task 398: unlimited
  | Maximum stacksize for task 399: unlimited
  | Maximum stacksize for task 400: unlimited
  | Maximum stacksize for task 401: unlimited
  | Maximum stacksize for task 402: unlimited
  | Maximum stacksize for task 403: unlimited
  | Maximum stacksize for task 404: unlimited
  | Maximum stacksize for task 405: unlimited
  | Maximum stacksize for task 406: unlimited
  | Maximum stacksize for task 407: unlimited
  | Maximum stacksize for task 408: unlimited
  | Maximum stacksize for task 409: unlimited
  | Maximum stacksize for task 410: unlimited
  | Maximum stacksize for task 411: unlimited
  | Maximum stacksize for task 412: unlimited
  | Maximum stacksize for task 413: unlimited
  | Maximum stacksize for task 414: unlimited
  | Maximum stacksize for task 415: unlimited
  | Maximum stacksize for task 416: unlimited
  | Maximum stacksize for task 417: unlimited
  | Maximum stacksize for task 418: unlimited
  | Maximum stacksize for task 419: unlimited
  | Maximum stacksize for task 420: unlimited
  | Maximum stacksize for task 421: unlimited
  | Maximum stacksize for task 422: unlimited
  | Maximum stacksize for task 423: unlimited
  | Maximum stacksize for task 424: unlimited
  | Maximum stacksize for task 425: unlimited
  | Maximum stacksize for task 426: unlimited
  | Maximum stacksize for task 427: unlimited
  | Maximum stacksize for task 428: unlimited
  | Maximum stacksize for task 429: unlimited
  | Maximum stacksize for task 430: unlimited
  | Maximum stacksize for task 431: unlimited
  | Maximum stacksize for task 432: unlimited
  | Maximum stacksize for task 433: unlimited
  | Maximum stacksize for task 434: unlimited
  | Maximum stacksize for task 435: unlimited
  | Maximum stacksize for task 436: unlimited
  | Maximum stacksize for task 437: unlimited
  | Maximum stacksize for task 438: unlimited
  | Maximum stacksize for task 439: unlimited
  | Maximum stacksize for task 440: unlimited
  | Maximum stacksize for task 441: unlimited
  | Maximum stacksize for task 442: unlimited
  | Maximum stacksize for task 443: unlimited
  | Maximum stacksize for task 444: unlimited
  | Maximum stacksize for task 445: unlimited
  | Maximum stacksize for task 446: unlimited
  | Maximum stacksize for task 447: unlimited
  | Maximum stacksize for task 448: unlimited
  | Maximum stacksize for task 449: unlimited
  | Maximum stacksize for task 450: unlimited
  | Maximum stacksize for task 451: unlimited
  | Maximum stacksize for task 452: unlimited
  | Maximum stacksize for task 453: unlimited
  | Maximum stacksize for task 454: unlimited
  | Maximum stacksize for task 455: unlimited
  | Maximum stacksize for task 456: unlimited
  | Maximum stacksize for task 457: unlimited
  | Maximum stacksize for task 458: unlimited
  | Maximum stacksize for task 459: unlimited
  | Maximum stacksize for task 460: unlimited
  | Maximum stacksize for task 461: unlimited
  | Maximum stacksize for task 462: unlimited
  | Maximum stacksize for task 463: unlimited
  | Maximum stacksize for task 464: unlimited
  | Maximum stacksize for task 465: unlimited
  | Maximum stacksize for task 466: unlimited
  | Maximum stacksize for task 467: unlimited
  | Maximum stacksize for task 468: unlimited
  | Maximum stacksize for task 469: unlimited
  | Maximum stacksize for task 470: unlimited
  | Maximum stacksize for task 471: unlimited
  | Maximum stacksize for task 472: unlimited
  | Maximum stacksize for task 473: unlimited
  | Maximum stacksize for task 474: unlimited
  | Maximum stacksize for task 475: unlimited
  | Maximum stacksize for task 476: unlimited
  | Maximum stacksize for task 477: unlimited
  | Maximum stacksize for task 478: unlimited
  | Maximum stacksize for task 479: unlimited
  | Maximum stacksize for task 480: unlimited
  | Maximum stacksize for task 481: unlimited
  | Maximum stacksize for task 482: unlimited
  | Maximum stacksize for task 483: unlimited
  | Maximum stacksize for task 484: unlimited
  | Maximum stacksize for task 485: unlimited
  | Maximum stacksize for task 486: unlimited
  | Maximum stacksize for task 487: unlimited
  | Maximum stacksize for task 488: unlimited
  | Maximum stacksize for task 489: unlimited
  | Maximum stacksize for task 490: unlimited
  | Maximum stacksize for task 491: unlimited
  | Maximum stacksize for task 492: unlimited
  | Maximum stacksize for task 493: unlimited
  | Maximum stacksize for task 494: unlimited
  | Maximum stacksize for task 495: unlimited
  | Maximum stacksize for task 496: unlimited
  | Maximum stacksize for task 497: unlimited
  | Maximum stacksize for task 498: unlimited
  | Maximum stacksize for task 499: unlimited
  | Maximum stacksize for task 500: unlimited
  | Maximum stacksize for task 501: unlimited
  | Maximum stacksize for task 502: unlimited
  | Maximum stacksize for task 503: unlimited
  | Maximum stacksize for task 504: unlimited
  | Maximum stacksize for task 505: unlimited
  | Maximum stacksize for task 506: unlimited
  | Maximum stacksize for task 507: unlimited
  | Maximum stacksize for task 508: unlimited
  | Maximum stacksize for task 509: unlimited
  | Maximum stacksize for task 510: unlimited
  | Maximum stacksize for task 511: unlimited
  | Current stacksize for task 0: unlimited
  | Current stacksize for task 1: unlimited
  | Current stacksize for task 2: unlimited
  | Current stacksize for task 3: unlimited
  | Current stacksize for task 4: unlimited
  | Current stacksize for task 5: unlimited
  | Current stacksize for task 6: unlimited
  | Current stacksize for task 7: unlimited
  | Current stacksize for task 8: unlimited
  | Current stacksize for task 9: unlimited
  | Current stacksize for task 10: unlimited
  | Current stacksize for task 11: unlimited
  | Current stacksize for task 12: unlimited
  | Current stacksize for task 13: unlimited
  | Current stacksize for task 14: unlimited
  | Current stacksize for task 15: unlimited
  | Current stacksize for task 16: unlimited
  | Current stacksize for task 17: unlimited
  | Current stacksize for task 18: unlimited
  | Current stacksize for task 19: unlimited
  | Current stacksize for task 20: unlimited
  | Current stacksize for task 21: unlimited
  | Current stacksize for task 22: unlimited
  | Current stacksize for task 23: unlimited
  | Current stacksize for task 24: unlimited
  | Current stacksize for task 25: unlimited
  | Current stacksize for task 26: unlimited
  | Current stacksize for task 27: unlimited
  | Current stacksize for task 28: unlimited
  | Current stacksize for task 29: unlimited
  | Current stacksize for task 30: unlimited
  | Current stacksize for task 31: unlimited
  | Current stacksize for task 32: unlimited
  | Current stacksize for task 33: unlimited
  | Current stacksize for task 34: unlimited
  | Current stacksize for task 35: unlimited
  | Current stacksize for task 36: unlimited
  | Current stacksize for task 37: unlimited
  | Current stacksize for task 38: unlimited
  | Current stacksize for task 39: unlimited
  | Current stacksize for task 40: unlimited
  | Current stacksize for task 41: unlimited
  | Current stacksize for task 42: unlimited
  | Current stacksize for task 43: unlimited
  | Current stacksize for task 44: unlimited
  | Current stacksize for task 45: unlimited
  | Current stacksize for task 46: unlimited
  | Current stacksize for task 47: unlimited
  | Current stacksize for task 48: unlimited
  | Current stacksize for task 49: unlimited
  | Current stacksize for task 50: unlimited
  | Current stacksize for task 51: unlimited
  | Current stacksize for task 52: unlimited
  | Current stacksize for task 53: unlimited
  | Current stacksize for task 54: unlimited
  | Current stacksize for task 55: unlimited
  | Current stacksize for task 56: unlimited
  | Current stacksize for task 57: unlimited
  | Current stacksize for task 58: unlimited
  | Current stacksize for task 59: unlimited
  | Current stacksize for task 60: unlimited
  | Current stacksize for task 61: unlimited
  | Current stacksize for task 62: unlimited
  | Current stacksize for task 63: unlimited
  | Current stacksize for task 64: unlimited
  | Current stacksize for task 65: unlimited
  | Current stacksize for task 66: unlimited
  | Current stacksize for task 67: unlimited
  | Current stacksize for task 68: unlimited
  | Current stacksize for task 69: unlimited
  | Current stacksize for task 70: unlimited
  | Current stacksize for task 71: unlimited
  | Current stacksize for task 72: unlimited
  | Current stacksize for task 73: unlimited
  | Current stacksize for task 74: unlimited
  | Current stacksize for task 75: unlimited
  | Current stacksize for task 76: unlimited
  | Current stacksize for task 77: unlimited
  | Current stacksize for task 78: unlimited
  | Current stacksize for task 79: unlimited
  | Current stacksize for task 80: unlimited
  | Current stacksize for task 81: unlimited
  | Current stacksize for task 82: unlimited
  | Current stacksize for task 83: unlimited
  | Current stacksize for task 84: unlimited
  | Current stacksize for task 85: unlimited
  | Current stacksize for task 86: unlimited
  | Current stacksize for task 87: unlimited
  | Current stacksize for task 88: unlimited
  | Current stacksize for task 89: unlimited
  | Current stacksize for task 90: unlimited
  | Current stacksize for task 91: unlimited
  | Current stacksize for task 92: unlimited
  | Current stacksize for task 93: unlimited
  | Current stacksize for task 94: unlimited
  | Current stacksize for task 95: unlimited
  | Current stacksize for task 96: unlimited
  | Current stacksize for task 97: unlimited
  | Current stacksize for task 98: unlimited
  | Current stacksize for task 99: unlimited
  | Current stacksize for task 100: unlimited
  | Current stacksize for task 101: unlimited
  | Current stacksize for task 102: unlimited
  | Current stacksize for task 103: unlimited
  | Current stacksize for task 104: unlimited
  | Current stacksize for task 105: unlimited
  | Current stacksize for task 106: unlimited
  | Current stacksize for task 107: unlimited
  | Current stacksize for task 108: unlimited
  | Current stacksize for task 109: unlimited
  | Current stacksize for task 110: unlimited
  | Current stacksize for task 111: unlimited
  | Current stacksize for task 112: unlimited
  | Current stacksize for task 113: unlimited
  | Current stacksize for task 114: unlimited
  | Current stacksize for task 115: unlimited
  | Current stacksize for task 116: unlimited
  | Current stacksize for task 117: unlimited
  | Current stacksize for task 118: unlimited
  | Current stacksize for task 119: unlimited
  | Current stacksize for task 120: unlimited
  | Current stacksize for task 121: unlimited
  | Current stacksize for task 122: unlimited
  | Current stacksize for task 123: unlimited
  | Current stacksize for task 124: unlimited
  | Current stacksize for task 125: unlimited
  | Current stacksize for task 126: unlimited
  | Current stacksize for task 127: unlimited
  | Current stacksize for task 128: unlimited
  | Current stacksize for task 129: unlimited
  | Current stacksize for task 130: unlimited
  | Current stacksize for task 131: unlimited
  | Current stacksize for task 132: unlimited
  | Current stacksize for task 133: unlimited
  | Current stacksize for task 134: unlimited
  | Current stacksize for task 135: unlimited
  | Current stacksize for task 136: unlimited
[...]
      13    0.0000        2.0855       -1.0832       -3.5958       -0.6509        3.9471
      14    0.0000        5.5660       -1.2900       -4.8190       -1.1125        7.9824
      15    0.0000        7.1050       -1.1794       -5.0097       -1.1171        9.8181
      16    0.0000        7.1050       -1.1794       -5.0097       -1.1171        9.8181
      17    0.0000        7.1789       -1.8402       -5.5763       -1.3077        9.6073
      18    0.0000        7.1789       -1.8402       -5.5763       -1.4535        9.7055
      19    0.0000        8.0942       -1.8734       -5.8169       -1.4584       10.6208
      20    0.0000       10.0755       -1.1338       -5.1235       -0.8413       12.6022
      21    0.0000       10.0755       -1.1338       -5.1235       -0.8533       12.6022
      22    0.0000       11.0517       -0.8300       -4.6033       -2.1950       13.5783
      23    0.0000       12.4315       -1.3668       -6.0575       -2.0385       14.9581
      24    0.0000       12.4315       -1.3668       -6.0575       -1.9225       14.9581
      25    0.0000       14.0214       -2.2807       -6.7377       -1.7419       16.5480
      26    0.0000       17.4665       -4.3826      -12.2778       -3.8831       19.9931
      27    0.0000       21.3277       -2.5719       -8.7565       -2.2351       23.8543
      28    0.0000       21.3277       -2.5719       -8.7565       -2.2402       23.8543
      29    0.0000       24.5328       -2.8781       -9.0246       -2.2130       27.0594
      30    0.0000       26.2808       -2.3651       -8.8328       -2.1107       28.8074
      31    0.0000       26.2808       -2.3651       -8.8328       -2.0844       28.8074
      32    0.0000       27.5563       -0.8314       -6.7064       -1.4159       30.0829
      33    0.0000       27.5563       -0.8314       -6.7064       -1.4435       30.0829
      34    0.0000       28.8280       -1.5220       -8.3594       -2.7102       31.3546
      35    0.0000       28.8280       -1.5220       -8.3593       -2.7391       31.3546
      36    0.0000       29.0752       -2.4238       -9.4235       -3.1500       31.6018
      37    0.0000       29.0752       -2.4238       -9.4235       -3.2569       31.6018
      38    0.0000       30.8211       -1.0667       -7.1669       -1.4141       33.3477
      39    0.0000       33.0017       -2.2107       -8.6445       -2.4857       35.5284
      40    0.0000       33.3132       -1.7310       -8.8373       -2.4656       35.8398
      41    0.0000       33.3132       -1.7310       -8.8373       -2.6517       35.8398
      42    0.0000       33.4120       -1.0923       -7.5084       -1.2420       35.9386
      43    0.0000       33.4120       -1.0923       -7.5084       -1.2404       35.9386
      44    0.0000       39.1335       -2.5171      -10.1101       -2.8893       41.6601
      45    0.0000       41.0388       -2.0850       -9.9069       -2.5045       43.5654
      46    0.0000       41.0388       -2.0850       -9.9069       -2.1565       43.5654
      47    0.0000       43.5452       -3.4034      -12.1388       -3.2313       46.0718
      48    0.0000       51.2348       -2.9568      -12.4863       -2.7597       53.7614
      49    0.0000       51.2348       -2.9568      -12.4863       -2.8403       53.7614
      50    0.0000       60.0917       -2.8360      -12.5916       -2.3314       62.6183
      51    0.0000       65.0660       -1.9477      -11.6096       -1.8290       67.5926
      52    0.0000       65.0660       -1.9477      -11.6096       -1.8007       67.5926
      53    0.0000       70.0230       -3.2350      -13.9277       -3.3586       72.5496
      54    0.0000       70.0230       -3.2350      -13.9277       -3.4182       72.5496
      55    0.0000       70.7685       -3.6064      -13.8198       -2.4504       73.2951
      56    0.0000       75.3013       -3.3908      -14.6221       -3.9652       77.8279
      57    0.0000       75.3013       -3.3908      -14.6221       -3.9258       77.8279
      58    0.0000       79.1339       -2.5833      -13.4205       -3.7652       81.6605
      59    0.0000       79.1339       -2.5833      -13.4205       -3.7103       81.6605
      60    0.0000       84.1773       -0.7817       -9.7060       -1.6273       86.7040
      61    0.0000       84.1773       -0.7817       -9.7060       -1.6534       86.7040
      62    0.0000       85.5227       -3.3727      -14.5470       -3.9095       88.0494
      63    0.0000       87.8252       -1.4354      -10.9099       -3.3090       90.3518
      64    0.0000       87.8252       -1.4354      -10.9099       -2.9783       90.3518
      65    0.0000       89.2386       -0.9369      -10.3014       -1.5070       91.7653
      66    0.0000       89.2386       -0.9369      -10.3014       -1.4834       91.7653
      67    0.0000       94.8750       -1.0748      -10.9322       -3.0452       97.4016
      68    0.0000       94.8752       -1.0748      -10.9321       -3.0108       97.4018
      69    0.0000       96.6110       -1.2595      -11.1434       -2.6404       99.1376
      70    0.0000       96.6110       -1.2595      -11.1434       -2.8905       99.1376
      71    0.0000       96.9639       -1.2781      -11.5225       -3.6475       99.4905
      72    0.0000       96.9640       -1.2782      -11.5230       -3.8836       99.4906
      73    0.0000       97.0756       -1.4303      -10.7930       -2.0325       99.6022
      74    0.0000       97.6155       -1.1600      -11.5014       -4.2485      100.1421
      75    0.0000       97.6155       -1.1600      -11.5014       -4.1987      100.1421
      76    0.0000       99.2489       -2.4727      -13.4466       -2.1096      101.7755
      77    0.0000      104.0407       -5.4030      -19.8580       -5.8479      106.5673
      78    0.0000      104.0407       -5.4030      -19.8580       -6.1083      106.5673
      79    0.0000      108.3014       -1.3962      -12.2111       -2.5868      110.8280
      80    0.0000      108.3014       -1.3962      -12.2111       -2.5766      110.8280
      81    0.0000      110.9141       -3.5617      -16.0208       -2.9163      113.4408
      82    0.0000      111.1746       -1.3444      -12.2427       -3.4145      113.7012
      83    0.0000      111.1746       -1.3444      -12.2427       -2.2117      113.7012
      84    0.0000      117.0870       -4.2177      -16.7513       -1.5741      119.6137
      85    0.0000      139.9644       -4.7808      -19.9776       -3.4812      142.4910
      86    0.0000      148.5050       -2.4668      -15.5432       -0.6284      151.0317
      87    0.0000      148.5050       -2.4668      -15.5432       -0.6401      151.0317
      88    0.0000      168.2494       -3.8272      -16.8559       -1.2283      170.7760
      89    0.0000      183.2553       -1.7881      -16.0206       -2.5373      185.7819
      90    0.0000      183.2553       -1.7881      -16.0206       -2.5768      185.7819
      91    0.0000      188.8441       -1.8015      -16.2125       -2.2651      191.3707
      92    0.0000      188.8441       -1.8015      -16.2125       -5.8315      191.3707
      93    0.0000      203.6684       -1.9350      -16.8643       -2.7117      206.1950
      94    0.0000      203.6684       -1.9350      -16.8643       -2.7967      206.1950
      95    0.0000      205.9242       -2.1756      -17.4215       -2.6864      208.4508
      96    0.0000      205.9242       -2.1756      -17.4215       -2.8146      208.4508
      97    0.0000      208.2288       -2.6901      -18.2441       -2.3863      210.7555
      98    0.0000      227.1867       -2.5217      -19.2541       -6.2975      229.7133
      99    0.0000      227.1867       -2.5217      -19.2541       -6.2410      229.7133
     100    0.0000      235.7969       -2.3006      -18.8236       -5.9616      238.3236
     101    0.0000      235.7970       -2.3006      -18.8236       -6.3739      238.3236
     102    0.0000      244.5514       -3.1688      -21.0650       -8.7134      247.0780
     103    0.0000      244.5520       -3.1688      -21.0652       -8.7600      247.0786
     104    0.0000      244.5965       -2.2430      -18.8635       -7.1916      247.1231
     105    0.0000      244.5965       -2.2430      -18.8635       -6.5976      247.1231
     106    0.0000      245.6863       -3.8438      -20.9841       -5.9876      248.2130
     107    0.0000      264.5110       -3.2702      -21.3628       -6.5164      267.0376
     108    0.0000      268.9864       -2.7758      -20.4392       -9.4977      271.5130
     109    0.0000      268.9864       -2.7758      -20.4392       -9.5087      271.5130
     110    0.0000      292.5072       -7.6596      -26.5288       -6.9337      295.0339
     111    0.0000      519.3249      -10.7003      -37.8589       -1.4389      521.8515
     112    0.0000     1000.8977      -15.6324      -54.2158       -2.0078     1003.4243
     113    0.0000     2767.9274      -12.2388      -78.3719       -3.3727     2770.4540
     114    0.0000     5337.5098      -17.8686     -110.5265       -7.1669     5340.0364
----------------------------------------------------------------------------------------

   DFT/Hartree-Fock HOMO level (eV):    -7.4549   -7.4549

   Quasiparticle HOMO level (eV):      -11.6947  -11.6947
----------------------------------------------------------------------------------------

 ************************************************************
  ev-scGW0 converged
 ************************************************************
  
  Printing out the self-energy matrix element:  6 for spin  1

------------------------------------------------------------------------------------------------------

  Start calculating the spectral function for state:  6

------------------------------------------------------------------------------------------------------

          | Total time for transforming the 3-center integrals :        0.095 s
          | Total time for calculating the exchange-correlation
                                  energy matrix elements   :        0.004 s
          | Total time for calculating polarisability     
                        for imaginary frequencies          :       46.580 s
          | Total time for calculating self energy 
                        on imaginary frequency axis        :      101.953 s
          | Total time for calculating the quasiparticle 
                  energies with analytic continuation      :        0.017 s
          | Total time for calculating the quasiparticle 
                  energies with contour deformation        :        2.829 s

------------------------------------------------------------------------------
  Final output of selected total energy values:

  The following output summarizes some interesting total energy values
  at the end of a run (AFTER all relaxation, molecular dynamics, etc.).

  | Total energy of the DFT / Hartree-Fock s.c.f. calculation      :          -2158.039342217 eV
  | Final zero-broadening corrected energy (caution - metals only) :          -2158.039342217 eV
  | For reference only, the value of 1 Hartree used in FHI-aims is :             27.211384500 eV

  Before relying on these values, please be sure to understand exactly which
  total energy value is referred to by a given number. Different objects may
  all carry the same name 'total energy'. Definitions:

  Total energy of the DFT / Hartree-Fock s.c.f. calculation:
  | Note that this energy does not include ANY quantities calculated after the
  | s.c.f. cycle, in particular not ANY RPA, MP2, etc. many-body perturbation terms.

  Final zero-broadening corrected energy:
  | For metallic systems only, a broadening of the occupation numbers at the Fermi
  | level can be extrapolated back to zero broadening by an electron-gas inspired
  | formula. For all systems that are not real metals, this value can be
  | meaningless and should be avoided.

------------------------------------------------------------------------------
  Methods described in the following list of references were used in this FHI-aims run.
  If you publish the results, please make sure to cite these reference if they apply.
  FHI-aims is an academic code, and for our developers (often, Ph.D. students
  and postdocs), scientific credit in the community is essential.
  Thank you for helping us!

  For any use of FHI-aims, please cite:

    Volker Blum, Ralf Gehrke, Felix Hanke, Paula Havu, Ville Havu,
    Xinguo Ren, Karsten Reuter, and Matthias Scheffler
    'Ab initio molecular simulations with numeric atom-centered orbitals'
    Computer Physics Communications 180, 2175-2196 (2009)
    http://doi.org/10.1016/j.cpc.2009.06.022


  For Hartree-Fock, hybrid functionals, or many-body perturbation theory used in your run, please cite:

    Xinguo Ren, Patrick Rinke, Volker Blum, Juergen Wieferink, Alex Tkatchenko,
    Andrea Sanfilippo, Karsten Reuter, and Matthias Scheffler,
    'Resolution-of-identity approach to Hartree-Fock, hybrid density functionals,
    RPA, MP2, and GW with numeric atom-centered orbital basis functions'
    New Journal of Physics 14, 053020 (2012).
    http://doi.org/10.1088/1367-2630/14/5/053020


  The ELSI infrastructure was used in your run to solve the Kohn-Sham electronic structure.
  Please check out http://elsi-interchange.org to learn more.
  If scalability is important for your project, please acknowledge ELSI by citing:

    V. W-z. Yu, F. Corsetti, A. Garcia, W. P. Huhn, M. Jacquelin, W. Jia,
    B. Lange, L. Lin, J. Lu, W. Mi, A. Seifitokaldani, A. Vazquez-Mayagoitia,
    C. Yang, H. Yang, and V. Blum
    'ELSI: A unified software interface for Kohn-Sham electronic structure solvers'
    Computer Physics Communications 222, 267-285 (2018).
    http://doi.org/10.1016/j.cpc.2017.09.007


  For the real-space grid partitioning and parallelization used in this calculation, please cite:

    Ville Havu, Volker Blum, Paula Havu, and Matthias Scheffler,
    'Efficient O(N) integration for all-electron electronic structure calculation'
    'using numerically tabulated basis functions'
    Journal of Computational Physics 228, 8367-8379 (2009).
    http://doi.org/10.1016/j.jcp.2009.08.008

  Of course, there are many other important community references, e.g., those cited in the
  above references. Our list is limited to references that describe implementations in the
  FHI-aims code. The reason is purely practical (length of this list) - please credit others as well.

 * A warning was issued further up regarding the accuracy of onsite integrals.
   An integral with a negative eigenvalue was among the flagged integrals.
   In most standard situations, this warning is probably harmless.
   If needed, this can be verified by adjusting the radial_multiplier flag.

 * Warning - angular integration grids had to be adjusted for use with RI_method 'V'.
 * Background: You are using an electronic structure method that requires RI_method 'V'
 * for the resolution of identity of the Coulomb operator. (See Ren et al.,
 * New J. Phys 2012 for details.) This method requires three-center integrations
 * to be carried out on FHI-aims' normal angular and radial integration grids.
 * (See FHI-aims CPC Blum et al. 2009, p. 2183 for grid details and references.)
 * One of the angular grids specified in your control.in file was not large
 * enough for the maximal angular momenta of orbital and product basis functions
 * for its species.
 * This can lead to atomic total energy errors which cancel in energy differences.
 * Effective Sep 22, 2014, we have changed the default behavior of the code to
 * simply 'upgrade' the angular grids internally to a safe setting in this case.
 * Please be sure to NOT mix total energies from before and after the change.

------------------------------------------------------------
          Leaving FHI-aims.
          Date     :  20240515, Time     :  050837.319

          Computational steps:
          | Number of self-consistency cycles          :           15
          | Number of SCF (re)initializations          :            1

          Detailed time accounting                     :  max(cpu_time)    wall_clock(cpu1)
          | Total time                                  :     1080.884 s        1085.784 s
          | Preparation time                            :        0.171 s           0.197 s
          | Boundary condition initalization            :        0.001 s           0.001 s
          | Grid partitioning                           :        0.159 s           0.143 s
          | Preloading free-atom quantities on grid     :        0.024 s           0.033 s
          | Free-atom superposition energy              :        0.001 s           0.002 s
          | Total time for integrations                 :        0.143 s           0.149 s
          | Product basis setup: Total time             :        0.000 s           0.000 s
          | Product basis: | 3-center integrations     :(       0.833 s)  (       0.837 s)
          | Product basis: | 2-center integrations     :(       0.086 s)  (       0.087 s)
          | Product basis: | 2-center linear algebra   :(       0.081 s)  (       0.081 s)
          | Product basis: | 3-center x 2-center       :(       0.040 s)  (       0.041 s)
          | Transforming ovlp_3fn to ovlp_3KS           :        0.095 s           0.097 s
          | Screened Coulomb matrix W_mn(iw)            :      147.031 s         147.758 s
          | Polarisability matrix Pi_PQ(iw)             :       46.580 s          46.580 s
          | Total time for GW calculation               :     1072.182 s        1076.616 s
          | GW self-energy (analytic cont.)             :      373.304 s         374.915 s
          | Contour def: | Solving qp equations         :        2.829 s           2.839 s
          | Contour def: | GW self-energy               :      695.901 s         698.126 s
          | Contour def: | Scr Coulomb matrix W_mn(w)   :      693.264 s         695.331 s
          | Contour def: | CD-WAC W_mn(w) and Pade      :        0.000 s           0.000 s
          | Contour def: | Scr aux Coulomb mat W_PQ(w)  :      642.278 s         643.396 s
          | Contour def: | Polarisability Pi_PQ(w)      :      463.219 s         462.360 s
          | Contour def: | Printing self-energy CD      :      259.684 s         260.682 s
          | Contour def: | Spectral function CD         :        9.206 s           9.344 s
          | Total time for solution of K.-S. equations  :        0.847 s           0.851 s
          | Total time for density update               :        0.176 s           0.177 s
          | Total time for mixing                       :        5.226 s           4.932 s
          | Total time for Hartree multipole update     :        0.046 s           0.044 s
          | Total time for Hartree multipole sum        :        0.115 s           0.112 s
          | Total time for total energy evaluation      :        0.011 s           0.019 s

          Partial memory accounting:
          | Residual value for overall tracked memory usage across tasks:     0.000000 MB (should be 0.000000 MB)
          | Peak values for overall tracked memory usage:
          |   Minimum:        0.483 MB (on task  71 after allocating gradient_basis_wave)
          |   Maximum:        1.293 MB (on task   0 after allocating gradient_basis_wave)
          |   Average:        1.178 MB
          | Largest tracked array allocation:
          |   Minimum:        0.111 MB (gradient_basis_wave on task  71)
          |   Maximum:        0.470 MB (gradient_basis_wave on task   0)
          |   Average:        0.421 MB
          Note:  These values currently only include a subset of arrays which are explicitly tracked.
          The "true" memory usage will be greater.

          Have a nice day.
------------------------------------------------------------
