------------------------------------------------------------
          Invoking FHI-aims ...

          When using FHI-aims, please cite the following reference:

            Volker Blum, Ralf Gehrke, Felix Hanke, Paula Havu,
            Ville Havu, Xinguo Ren, Karsten Reuter, and Matthias Scheffler,
            'Ab Initio Molecular Simulations with Numeric Atom-Centered Orbitals',
            Computer Physics Communications 180, 2175-2196 (2009)

          In addition, many other developments in FHI-aims are likely important for
          your particular application. A partial list of references is given at the end of
          this file. Thank you for giving credit to the authors of these developments.

          For any questions about FHI-aims, please visit our slack channel at

            https://fhi-aims.slack.com

          and our main development and support site at

            https://aims-git.rz-berlin.mpg.de .

          The latter site, in particular, has a wiki to collect information, as well
          as an issue tracker to log discussions, suggest improvements, and report issues
          or bugs. https://aims-git.rz-berlin.mpg.de is also the main development site
          of the project and all new and updated code versions can be obtained there.
          Please send an email to aims-coordinators@fhi-berlin.mpg.de and we will add
          you to these sites. They are for you and everyone is welcome there.

------------------------------------------------------------



  Date     :  20240515, Time     :  123125.555
  Time zero on CPU 1             :   0.328515000000000E+01  s.
  Internal wall clock time zero  :           485008285.555  s.

  FHI-aims created a unique identifier for this run for later identification
  aims_uuid : FF099BD0-2218-4946-A127-89FD81725F09

  Build configuration of the current instance of FHI-aims
  -------------------------------------------------------
  FHI-aims version      : 221103.1
  Commit number         : GITDIR-NOTFOUND
  CMake host system     : Linux-4.18.0-372.32.1.el8_6.x86_64
  CMake version         : 3.24.3
  Fortran compiler      : /opt/software/pc2/EB-SW/software/OpenMPI/4.1.4-GCC-12.2.0/bin/mpifort (GNU) version 12.2.0
  Fortran compiler flags: -O3 -ffree-line-length-none -fallow-argument-mismatch -march=znver3 -mprefer-vector-width=256
  C compiler            : /opt/software/pc2/EB-SW/software/GCCcore/12.2.0/bin/gcc (GNU) version 12.2.0
  C compiler flags      : -O3 -DNDEBUG -funroll-loops -march=znver3 -mprefer-vector-width=256
  HIP compiler          :
  HIP compiler flags    :
  HIP GPU arch          :
  Using MPI
  Using ScaLAPACK
  Using LibXC
  Using i-PI
  Using RLSY
  Linking against: /opt/software/pc2/EB-SW/software/ScaLAPACK/2.2.0-gompi-2022b-fb/lib/libscalapack.so
                   /opt/software/pc2/EB-SW/software/OpenBLAS/0.3.21-GCC-12.2.0/lib/libopenblas.so

  Using      128 parallel tasks.
  Task        0 on host n2cn0172 reporting.
  Task        1 on host n2cn0172 reporting.
  Task        2 on host n2cn0172 reporting.
  Task        3 on host n2cn0172 reporting.
  Task        4 on host n2cn0172 reporting.
  Task        5 on host n2cn0172 reporting.
  Task        6 on host n2cn0172 reporting.
  Task        7 on host n2cn0172 reporting.
  Task        8 on host n2cn0172 reporting.
  Task        9 on host n2cn0172 reporting.
  Task       10 on host n2cn0172 reporting.
  Task       11 on host n2cn0172 reporting.
  Task       12 on host n2cn0172 reporting.
  Task       13 on host n2cn0172 reporting.
  Task       14 on host n2cn0172 reporting.
  Task       15 on host n2cn0172 reporting.
  Task       16 on host n2cn0172 reporting.
  Task       17 on host n2cn0172 reporting.
  Task       18 on host n2cn0172 reporting.
  Task       19 on host n2cn0172 reporting.
  Task       20 on host n2cn0172 reporting.
  Task       21 on host n2cn0172 reporting.
  Task       22 on host n2cn0172 reporting.
  Task       23 on host n2cn0172 reporting.
  Task       24 on host n2cn0172 reporting.
  Task       25 on host n2cn0172 reporting.
  Task       26 on host n2cn0172 reporting.
  Task       27 on host n2cn0172 reporting.
  Task       28 on host n2cn0172 reporting.
  Task       29 on host n2cn0172 reporting.
  Task       30 on host n2cn0172 reporting.
  Task       31 on host n2cn0172 reporting.
  Task       32 on host n2cn0172 reporting.
  Task       33 on host n2cn0172 reporting.
  Task       34 on host n2cn0172 reporting.
  Task       35 on host n2cn0172 reporting.
  Task       36 on host n2cn0172 reporting.
  Task       37 on host n2cn0172 reporting.
  Task       38 on host n2cn0172 reporting.
  Task       39 on host n2cn0172 reporting.
  Task       40 on host n2cn0172 reporting.
  Task       41 on host n2cn0172 reporting.
  Task       42 on host n2cn0172 reporting.
  Task       43 on host n2cn0172 reporting.
  Task       44 on host n2cn0172 reporting.
  Task       45 on host n2cn0172 reporting.
  Task       46 on host n2cn0172 reporting.
  Task       47 on host n2cn0172 reporting.
  Task       48 on host n2cn0172 reporting.
  Task       49 on host n2cn0172 reporting.
  Task       50 on host n2cn0172 reporting.
  Task       51 on host n2cn0172 reporting.
  Task       52 on host n2cn0172 reporting.
  Task       53 on host n2cn0172 reporting.
  Task       54 on host n2cn0172 reporting.
  Task       55 on host n2cn0172 reporting.
  Task       56 on host n2cn0172 reporting.
  Task       57 on host n2cn0172 reporting.
  Task       58 on host n2cn0172 reporting.
  Task       59 on host n2cn0172 reporting.
  Task       60 on host n2cn0172 reporting.
  Task       61 on host n2cn0172 reporting.
  Task       62 on host n2cn0172 reporting.
  Task       63 on host n2cn0172 reporting.
  Task       64 on host n2cn0172 reporting.
  Task       65 on host n2cn0172 reporting.
  Task       66 on host n2cn0172 reporting.
  Task       67 on host n2cn0172 reporting.
  Task       68 on host n2cn0172 reporting.
  Task       69 on host n2cn0172 reporting.
  Task       70 on host n2cn0172 reporting.
  Task       71 on host n2cn0172 reporting.
  Task       72 on host n2cn0172 reporting.
  Task       73 on host n2cn0172 reporting.
  Task       74 on host n2cn0172 reporting.
  Task       75 on host n2cn0172 reporting.
  Task       76 on host n2cn0172 reporting.
  Task       77 on host n2cn0172 reporting.
  Task       78 on host n2cn0172 reporting.
  Task       79 on host n2cn0172 reporting.
  Task       80 on host n2cn0172 reporting.
  Task       81 on host n2cn0172 reporting.
  Task       82 on host n2cn0172 reporting.
  Task       83 on host n2cn0172 reporting.
  Task       84 on host n2cn0172 reporting.
  Task       85 on host n2cn0172 reporting.
  Task       86 on host n2cn0172 reporting.
  Task       87 on host n2cn0172 reporting.
  Task       88 on host n2cn0172 reporting.
  Task       89 on host n2cn0172 reporting.
  Task       90 on host n2cn0172 reporting.
  Task       91 on host n2cn0172 reporting.
  Task       92 on host n2cn0172 reporting.
  Task       93 on host n2cn0172 reporting.
  Task       94 on host n2cn0172 reporting.
  Task       95 on host n2cn0172 reporting.
  Task       96 on host n2cn0172 reporting.
  Task       97 on host n2cn0172 reporting.
  Task       98 on host n2cn0172 reporting.
  Task       99 on host n2cn0172 reporting.
  Task      100 on host n2cn0172 reporting.
  Task      101 on host n2cn0172 reporting.
  Task      102 on host n2cn0172 reporting.
  Task      103 on host n2cn0172 reporting.
  Task      104 on host n2cn0172 reporting.
  Task      105 on host n2cn0172 reporting.
  Task      106 on host n2cn0172 reporting.
  Task      107 on host n2cn0172 reporting.
  Task      108 on host n2cn0172 reporting.
  Task      109 on host n2cn0172 reporting.
  Task      110 on host n2cn0172 reporting.
  Task      111 on host n2cn0172 reporting.
  Task      112 on host n2cn0172 reporting.
  Task      113 on host n2cn0172 reporting.
  Task      114 on host n2cn0172 reporting.
  Task      115 on host n2cn0172 reporting.
  Task      116 on host n2cn0172 reporting.
  Task      117 on host n2cn0172 reporting.
  Task      118 on host n2cn0172 reporting.
  Task      119 on host n2cn0172 reporting.
  Task      120 on host n2cn0172 reporting.
  Task      121 on host n2cn0172 reporting.
  Task      122 on host n2cn0172 reporting.
  Task      123 on host n2cn0172 reporting.
  Task      124 on host n2cn0172 reporting.
  Task      125 on host n2cn0172 reporting.
  Task      126 on host n2cn0172 reporting.
  Task      127 on host n2cn0172 reporting.

  Performing system and environment tests:
  | Environment variable OMP_NUM_THREADS correctly set to 1.
  | Checking for ScaLAPACK...
  | Testing pdtran()...
  | All pdtran() tests passed.

  Obtaining array dimensions for all initial allocations:
  
  -----------------------------------------------------------------------
  Parsing control.in (first pass over file, find array dimensions only).
  The contents of control.in will be repeated verbatim below
  unless switched off by setting 'verbatim_writeout .false.' .
  in the first line of control.in .
  -----------------------------------------------------------------------
  
  #control.in header for database project
  #using def2-QVPZ basis for light and heavy elements
  
  #########################################
    xc                 pbe
    qpe_calc           gw
    #RI_method v
    #spin               collinear
    #default_initial_moment 0.01
    spin none
  
    anacon_type  1
    n_anacon_par 128
    frequency_points 600
    contour_def_gw   1 21
    contour_eta 0.004
    state_lower_limit 1
    state_upper_limit 500
    print_self_energy 10 -20.0 0.0
  
    relativistic none
    override_relativity .true.
    partition_type rho_r2
    density_update_method density_matrix
  
    calc_spectral_func -20.0 0.0 0.01
    spectral_func_state 10
  
  #########################################
    occupation_type    gaussian 0.000001
    mixer              pulay
      n_max_pulay        10
      charge_mix_param   0.2
    sc_accuracy_rho    1E-5
    sc_accuracy_eev    1E-5
    sc_accuracy_etot   1E-5
    sc_iter_limit      600
  #########################################
    prodbas_threshold  1.e-5
    KS_method          serial
    empty_states       25000
    # Do not check for overlapping xxx matrix
    # Not recommended
    # Necessary for large basis sets
    override_illconditioning .true.
    basis_threshold 1.e-5
  #########################################
  ################################################################################
  #
  #  FHI-aims code project
  # Volker Blum, Fritz Haber Institute Berlin, 2009
  #
  #  Suggested "tight" defaults for O atom (to be pasted into control.in file)
  #
  ################################################################################
    species        O
  #     global species definitions
      nucleus             8
      mass                15.9994
  #
      l_hartree           8
  #
      cut_pot             4.0  2.0  1.0
      basis_dep_cutoff    0.d0
  #
      radial_base         36 7.0
      radial_multiplier   4
       angular_grids specified
        division   0.4087  110
        division   0.5181  194
        division   0.6184  302
        division   0.7315  434
        division   0.7934  590
        division   0.9656  770
        division   1.4041  974
        outer_grid 974
        #outer_grid 590
  
  ################################################################################
  #
  #  Definition of "minimal" basis
  #
  ################################################################################
  #     valence basis states
      valence      2  s   2.
      valence      2  p   4.
  #     ion occupancy
      ion_occ      2  s   1.
      ion_occ      2  p   3.
  
  ################################################################################
  #
  #  Suggested additional basis functions. For production calculations,
  #  uncomment them one after another (the most important basis functions are
  #  listed first).
  #
  #  Constructed for dimers: 1.0 A, 1.208 A, 1.5 A, 2.0 A, 3.0 A
  #
  ################################################################################
  #  "First tier" - improvements: -699.05 meV to -159.38 meV
  #     hydro 2 p 1.8
  #     hydro 3 d 7.6
  #     hydro 3 s 6.4
  #  "Second tier" - improvements: -49.91 meV to -5.39 meV
  #     hydro 4 f 11.6
  #     hydro 3 p 6.2
  #     hydro 3 d 5.6
  #     hydro 5 g 17.6
  #     hydro 1 s 0.75
  #  "Third tier" - improvements: -2.83 meV to -0.50 meV
  #     ionic 2 p auto
  #     hydro 4 f 10.8
  #     hydro 4 d 4.7
  #     hydro 2 s 6.8
  #  "Fourth tier" - improvements: -0.40 meV to -0.12 meV
  #     hydro 3 p 5
  #     hydro 3 s 3.3
  #     hydro 5 g 15.6
  #     hydro 4 f 17.6
  #     hydro 4 d 14
  # Further basis functions - -0.08 meV and below
  #     hydro 3 s 2.1
  #     hydro 4 d 11.6
  #     hydro 3 p 16
  #     hydro 2 s 17.2
  
  
  ################################################################################
  #
  #  Suggested additional basis functions. For production calculations,
  #  uncomment them one after another (the most important basis functions are
  #  listed first).
  #
  #  Basis constructed for dimers: 0.5 A, 0.7 A, 1.0 A, 1.5 A, 2.5 A
  #
  ################################################################################
  # The default minimal basis should not be included
  include_min_basis .false.
  # Use spherical functions?
  pure_gauss .true.
  # O def2-QZVP
  gaussian 0 8
 116506.4690800              0.40383857939E-04
  17504.3497240              0.31255139004E-03
   3993.4513230              0.16341473495E-02
   1133.0063186              0.68283224757E-02
    369.99569594             0.24124410221E-01
    133.62074349             0.72730206154E-01
     52.035643649            0.17934429892
     21.461939313            0.33059588895
  gaussian 0 2
     89.835051252            0.96468652996E-01
     26.428010844            0.94117481120
  gaussian 0 1 9.2822824649
  gaussian 0 1 4.0947728533
  gaussian 0 1 1.3255349078
  gaussian 0 1 0.51877230787
  gaussian 0 1 0.19772676454
  gaussian 1 5
    191.15255810             0.25115697705E-02
     45.233356739            0.20039240864E-01
     14.353465922            0.93609064762E-01
      5.2422371832           0.30618127124
      2.0792418599           0.67810501439
  gaussian 1 1 0.84282371424
  gaussian 1 1 0.33617694891
  gaussian 1 1 0.12863997974
  gaussian 2 1 3.77500000
  gaussian 2 1 1.30000000
  gaussian 2 1 0.44400000
  gaussian 3 1 2.66600000
  gaussian 3 1 0.85900000
  gaussian 4 1 1.84600000
  
  ################################################################################
  #
  #  FHI-aims code project
  # Volker Blum, Fritz Haber Institute Berlin, 2009
  #
  #  Suggested "tight" defaults for Mg atom (to be pasted into control.in file)
  #
  #  2016/03/22 : Included the tier2 f function by default. This is
  #               certainly necessary to warrant the designation
  #               "tight". Note that convergence tests by including
  #               further individual radial functions from tier2 may be
  #               a good idea anyway.
  #
  #  2016/03/28 : After further discussions, added full tier 2 to default basis
  #               set (this is "tight" after all). Note that, particularly for
  #               hybrid functionals, it may be possible to get excellent accuracy
  #               using just tier 1 + the f function from tier 2, at much reduced
  #               cost.
  #
  ################################################################################
    species        Mg
  #     global species definitions
      nucleus             12
      mass                24.3050
  #
      l_hartree           8
  #
      cut_pot             5.0          2.0  1.0
      basis_dep_cutoff    0.d0
  #
      radial_base         40 7.0
      radial_multiplier   4
      angular_grids       specified
        division   0.5585  110
        division   0.7564  194
        division   0.9039  302
        division   1.1486  434
        division   1.2283  590
        division   1.3129  770
        division   3.5518  974
        outer_grid   974
  #      outer_grid   590
  
  ################################################################################
  #
  #  Definition of "minimal" basis
  #
  ################################################################################
  #     valence basis states
      valence      3  s   2.
      valence      2  p   6.
  #     ion occupancy
      ion_occ      2  s   2.
      ion_occ      2  p   6.
  
  
  
              # The default minimal basis should not be included
              include_min_basis .false.
              # Use spherical functions?
              pure_gauss .true.
              # Mg def2-QZVP
  gaussian 0 10
 605967.7875300              0.14430176617E-04
  90569.0946920              0.11249871807E-03
  20574.2528440              0.59264972450E-03
   5818.6284865              0.24988770424E-02
   1895.6296075              0.90230775141E-02
    683.45941021             0.28579919806E-01
    266.18219762             0.79064453923E-01
    110.11220010             0.18269337814
     47.777041234            0.32157193967
     21.542166149            0.35028259389
  gaussian 0 3
    174.12136378             0.22931111278E-01
     53.484972498            0.19151777552
     20.500213307            0.61155711055
  gaussian 0 1 9.8056826922
  gaussian 0 1 3.5402989348
  gaussian 0 1 1.5450850046
  gaussian 0 1 0.66540195432
  gaussian 0 1 0.14355439071
  gaussian 0 1 0.66624673468E-01
  gaussian 0 1 0.29772648266E-01
  gaussian 1 8
    893.20460829             0.34958267428E-03
    211.78258286             0.29811890111E-02
     68.443200537            0.15517845758E-01
     25.727265349            0.57578659557E-01
     10.606634281            0.15610307853
      4.5934126484           0.29230912580
      2.0100469807           0.37219024072
      0.87384841536          0.27578088891
  gaussian 1 1 0.35615076666
  gaussian 1 1 0.18995954356
  gaussian 1 1 0.74580135669E-01
  gaussian 1 1 0.29221641309E-01
  gaussian 2 1 3.8100000
  gaussian 2 1 0.6500000
  gaussian 2 1 0.2000000
  gaussian 2 1 0.0520000
  gaussian 3 1 0.1600000
  
  -----------------------------------------------------------------------
  Completed first pass over input file control.in .
  -----------------------------------------------------------------------
  
  
  -----------------------------------------------------------------------
  Parsing geometry.in (first pass over file, find array dimensions only).
  The contents of geometry.in will be repeated verbatim below
  unless switched off by setting 'verbatim_writeout .false.' .
  in the first line of geometry.in .
  -----------------------------------------------------------------------
  
  atom 0.0000 0.0000 0.0000 Mg
  atom 0.0000 0.0000 1.749  O
  
  -----------------------------------------------------------------------
  Completed first pass over input file geometry.in .
  -----------------------------------------------------------------------
  

  Basic array size parameters:
  | Number of species                 :        2
  | Number of atoms                   :        2
  | Max. basis fn. angular momentum   :        4
  | Max. atomic/ionic basis occupied n:        3
  | Max. number of basis fn. types    :        1
  | Max. radial fns per species/type  :       24
  | Max. logarithmic grid size        :     1334
  | Max. radial integration grid size :      163
  | Max. angular integration grid size:      974
  | Max. angular grid division number :        8
  | Radial grid for Hartree potential :     1334
  | Number of spin channels           :        1

------------------------------------------------------------
          Reading file control.in.
------------------------------------------------------------
  XC: Using PBE gradient-corrected functionals.
  GW quasiparticle calculation of excited states will be started after the DFT/HF calculation.
  Spin treatment: No spin polarisation.
  Using Pade approximation for analytical continuation.
  Number of fitting parameters for analytical continuation :    128
  Number of frequency points used for the self-energy calculation:    600
  Contour deformation in GW for the levels:      1     to      21
  Broadening parameter eta:       0.004000
  Lower limit of the eigenstates for the self-energy correction :      1
  Upper limit of the eigenstates for the self-energy correction :    500
  Non-relativistic treatment of kinetic energy.
  override_relativity: Explicitly overriding any built-in relativity checks.
  If you use this flag, you should really know what you are doing.
  Partition function in integrals calculations: rho / r^2
  Spectral function will be calculated from:   -20.000   to        0.000  eV
  Occupation type: Gaussian broadening, width =   0.100000E-05 eV.
  Using pulay charge density mixing.
  Pulay mixing - number of memorized iterations:   10
  Charge density mixing - mixing parameter:     0.2000
  Convergence accuracy of self-consistent charge density:  0.1000E-04
  Convergence accuracy of sum of eigenvalues:  0.1000E-04
  Convergence accuracy of total energy:  0.1000E-04
  Maximum number of s.-c. iterations  :   600
  Threshold for auxiliary basis singularities:  0.1000E-04
  Kohn-Sham eigenvalues and eigenfunctions calculated by LAPACK via ELSI.
  Number of empty states per atom:    25000
  override_illconditioning: Explicitly overriding any built-in checks for an ill-conditioned overlap matrix.
  *** WARNING: If you use this flag, you should really know what you are doing.
  *** DO NOT keep this flag set by default in all your control.in files.
  Threshold for basis singularities:  0.1000E-04

  Reading configuration options for species O                   .
  | Found nuclear charge :   8.0000
  | Found atomic mass :    15.999400000000000      amu
  | Found l_max for Hartree potential  :   8
  | Found cutoff potl. onset [A], width [A], scale factor :    4.00000    2.00000    1.00000
  | Threshold for basis-dependent cutoff potential is   0.000000E+00
  | Found data for basic radial integration grid :    36 points, outermost radius =    7.000 A
  | Found multiplier for basic radial grid :   4
  | Found angular grid specification: user-specified.
  | Specified grid contains     8 separate shells.
  | Check grid settings after all constraints further below.
  | Found free-atom valence shell :  2 s   2.000
  | Found free-atom valence shell :  2 p   4.000
  | No ionic wave fns used. Skipping ion_occ.
  | No ionic wave fns used. Skipping ion_occ.
  | Found request to include minimal basis fns. :     F
  | Found request to include pure gaussian fns. :     T
  | Found contracted cartesian Gaussian basis function :  L = 0 ,   8 elementary Gaussians:
  |   alpha = 0.116506E+06 weight = 0.403839E-04
  |   alpha = 0.175043E+05 weight = 0.312551E-03
  |   alpha = 0.399345E+04 weight = 0.163415E-02
  |   alpha = 0.113301E+04 weight = 0.682832E-02
  |   alpha = 0.369996E+03 weight = 0.241244E-01
  |   alpha = 0.133621E+03 weight = 0.727302E-01
  |   alpha = 0.520356E+02 weight = 0.179344E+00
  |   alpha = 0.214619E+02 weight = 0.330596E+00
  |   In terms of angular momentum, this radial function adds: 
  |     1 s-type basis function
  | Found contracted cartesian Gaussian basis function :  L = 0 ,   2 elementary Gaussians:
  |   alpha = 0.898351E+02 weight = 0.964687E-01
  |   alpha = 0.264280E+02 weight = 0.941175E+00
  |   In terms of angular momentum, this radial function adds: 
  |     1 s-type basis function
  | Found primitive cartesian Gaussian basis function :  0 0.928228E+01
  |   In terms of angular momentum, this radial function adds: 
  |     1 s-type basis function
  | Found primitive cartesian Gaussian basis function :  0 0.409477E+01
  |   In terms of angular momentum, this radial function adds: 
  |     1 s-type basis function
  | Found primitive cartesian Gaussian basis function :  0 0.132553E+01
  |   In terms of angular momentum, this radial function adds: 
  |     1 s-type basis function
  | Found primitive cartesian Gaussian basis function :  0 0.518772E+00
  |   In terms of angular momentum, this radial function adds: 
  |     1 s-type basis function
  | Found primitive cartesian Gaussian basis function :  0 0.197727E+00
  |   In terms of angular momentum, this radial function adds: 
  |     1 s-type basis function
  | Found contracted cartesian Gaussian basis function :  L = 1 ,   5 elementary Gaussians:
  |   alpha = 0.191153E+03 weight = 0.251157E-02
  |   alpha = 0.452334E+02 weight = 0.200392E-01
  |   alpha = 0.143535E+02 weight = 0.936091E-01
  |   alpha = 0.524224E+01 weight = 0.306181E+00
  |   alpha = 0.207924E+01 weight = 0.678105E+00
  |   In terms of angular momentum, this radial function adds: 
  |     3 p-type basis functions
  | Found primitive cartesian Gaussian basis function :  1 0.842824E+00
  |   In terms of angular momentum, this radial function adds: 
  |     3 p-type basis functions
  | Found primitive cartesian Gaussian basis function :  1 0.336177E+00
  |   In terms of angular momentum, this radial function adds: 
  |     3 p-type basis functions
  | Found primitive cartesian Gaussian basis function :  1 0.128640E+00
  |   In terms of angular momentum, this radial function adds: 
  |     3 p-type basis functions
  | Found primitive cartesian Gaussian basis function :  2 0.377500E+01
  |   In terms of angular momentum, this radial function adds: 
  |     5 d-type basis functions
  | Found primitive cartesian Gaussian basis function :  2 0.130000E+01
  |   In terms of angular momentum, this radial function adds: 
  |     5 d-type basis functions
  | Found primitive cartesian Gaussian basis function :  2 0.444000E+00
  |   In terms of angular momentum, this radial function adds: 
  |     5 d-type basis functions
  | Found primitive cartesian Gaussian basis function :  3 0.266600E+01
  |   In terms of angular momentum, this radial function adds: 
  |     7 f-type basis functions
  | Found primitive cartesian Gaussian basis function :  3 0.859000E+00
  |   In terms of angular momentum, this radial function adds: 
  |     7 f-type basis functions
  | Found primitive cartesian Gaussian basis function :  4 0.184600E+01
  |   In terms of angular momentum, this radial function adds: 
  |     9 g-type basis functions
  Species O                   : Missing cutoff potential type.
  Defaulting to exp(1/x)/(1-x)^2 type cutoff potential.
  Species O : No 'logarithmic' tag. Using default grid for free atom:
  | Default logarithmic grid data [bohr] : 0.1000E-03 0.1000E+03 0.1012E+01
  Species O : On-site basis accuracy parameter (for Gram-Schmidt orthonormalisation) not specified.
  Using default value basis_acc =  0.1000000E-03.
  Species O                   : Using default innermost maximum threshold i_radial=  2 for radial functions.
  Species O                   : Default cutoff onset for free atom density etc. is infinite
  since the product basis is used (hybrid functionals, Hartree-Fock, GW etc.).
  Species O                   : Basic radial grid will be enhanced according to radial_multiplier =   4, to contain   147 grid points.

  Reading configuration options for species Mg                  .
  | Found nuclear charge :  12.0000
  | Found atomic mass :    24.305000000000000      amu
  | Found l_max for Hartree potential  :   8
  | Found cutoff potl. onset [A], width [A], scale factor :    5.00000    2.00000    1.00000
  | Threshold for basis-dependent cutoff potential is   0.000000E+00
  | Found data for basic radial integration grid :    40 points, outermost radius =    7.000 A
  | Found multiplier for basic radial grid :   4
  | Found angular grid specification: user-specified.
  | Specified grid contains     8 separate shells.
  | Check grid settings after all constraints further below.
  | Found free-atom valence shell :  3 s   2.000
  | Found free-atom valence shell :  2 p   6.000
  | No ionic wave fns used. Skipping ion_occ.
  | No ionic wave fns used. Skipping ion_occ.
  | Found request to include minimal basis fns. :     F
  | Found request to include pure gaussian fns. :     T
  | Found contracted cartesian Gaussian basis function :  L = 0 ,  10 elementary Gaussians:
  |   alpha = 0.605968E+06 weight = 0.144302E-04
  |   alpha = 0.905691E+05 weight = 0.112499E-03
  |   alpha = 0.205743E+05 weight = 0.592650E-03
  |   alpha = 0.581863E+04 weight = 0.249888E-02
  |   alpha = 0.189563E+04 weight = 0.902308E-02
  |   alpha = 0.683459E+03 weight = 0.285799E-01
  |   alpha = 0.266182E+03 weight = 0.790645E-01
  |   alpha = 0.110112E+03 weight = 0.182693E+00
  |   alpha = 0.477770E+02 weight = 0.321572E+00
  |   alpha = 0.215422E+02 weight = 0.350283E+00
  |   In terms of angular momentum, this radial function adds: 
  |     1 s-type basis function
  | Found contracted cartesian Gaussian basis function :  L = 0 ,   3 elementary Gaussians:
  |   alpha = 0.174121E+03 weight = 0.229311E-01
  |   alpha = 0.534850E+02 weight = 0.191518E+00
  |   alpha = 0.205002E+02 weight = 0.611557E+00
  |   In terms of angular momentum, this radial function adds: 
  |     1 s-type basis function
  | Found primitive cartesian Gaussian basis function :  0 0.980568E+01
  |   In terms of angular momentum, this radial function adds: 
  |     1 s-type basis function
  | Found primitive cartesian Gaussian basis function :  0 0.354030E+01
  |   In terms of angular momentum, this radial function adds: 
  |     1 s-type basis function
  | Found primitive cartesian Gaussian basis function :  0 0.154509E+01
  |   In terms of angular momentum, this radial function adds: 
  |     1 s-type basis function
  | Found primitive cartesian Gaussian basis function :  0 0.665402E+00
  |   In terms of angular momentum, this radial function adds: 
  |     1 s-type basis function
  | Found primitive cartesian Gaussian basis function :  0 0.143554E+00
  |   In terms of angular momentum, this radial function adds: 
  |     1 s-type basis function
  | Found primitive cartesian Gaussian basis function :  0 0.666247E-01
  |   In terms of angular momentum, this radial function adds: 
  |     1 s-type basis function
  | Found primitive cartesian Gaussian basis function :  0 0.297726E-01
  |   In terms of angular momentum, this radial function adds: 
  |     1 s-type basis function
  | Found contracted cartesian Gaussian basis function :  L = 1 ,   8 elementary Gaussians:
  |   alpha = 0.893205E+03 weight = 0.349583E-03
  |   alpha = 0.211783E+03 weight = 0.298119E-02
  |   alpha = 0.684432E+02 weight = 0.155178E-01
  |   alpha = 0.257273E+02 weight = 0.575787E-01
  |   alpha = 0.106066E+02 weight = 0.156103E+00
  |   alpha = 0.459341E+01 weight = 0.292309E+00
  |   alpha = 0.201005E+01 weight = 0.372190E+00
  |   alpha = 0.873848E+00 weight = 0.275781E+00
  |   In terms of angular momentum, this radial function adds: 
  |     3 p-type basis functions
  | Found primitive cartesian Gaussian basis function :  1 0.356151E+00
  |   In terms of angular momentum, this radial function adds: 
  |     3 p-type basis functions
  | Found primitive cartesian Gaussian basis function :  1 0.189960E+00
  |   In terms of angular momentum, this radial function adds: 
  |     3 p-type basis functions
  | Found primitive cartesian Gaussian basis function :  1 0.745801E-01
  |   In terms of angular momentum, this radial function adds: 
  |     3 p-type basis functions
  | Found primitive cartesian Gaussian basis function :  1 0.292216E-01
  |   In terms of angular momentum, this radial function adds: 
  |     3 p-type basis functions
  | Found primitive cartesian Gaussian basis function :  2 0.381000E+01
  |   In terms of angular momentum, this radial function adds: 
  |     5 d-type basis functions
  | Found primitive cartesian Gaussian basis function :  2 0.650000E+00
  |   In terms of angular momentum, this radial function adds: 
  |     5 d-type basis functions
  | Found primitive cartesian Gaussian basis function :  2 0.200000E+00
  |   In terms of angular momentum, this radial function adds: 
  |     5 d-type basis functions
  | Found primitive cartesian Gaussian basis function :  2 0.520000E-01
  |   In terms of angular momentum, this radial function adds: 
  |     5 d-type basis functions
  | Found primitive cartesian Gaussian basis function :  3 0.160000E+00
  |   In terms of angular momentum, this radial function adds: 
  |     7 f-type basis functions
  Species Mg                  : Missing cutoff potential type.
  Defaulting to exp(1/x)/(1-x)^2 type cutoff potential.
  Species Mg: No 'logarithmic' tag. Using default grid for free atom:
  | Default logarithmic grid data [bohr] : 0.1000E-03 0.1000E+03 0.1012E+01
  Species Mg: On-site basis accuracy parameter (for Gram-Schmidt orthonormalisation) not specified.
  Using default value basis_acc =  0.1000000E-03.
  Species Mg                  : Using default innermost maximum threshold i_radial=  2 for radial functions.
  Species Mg                  : Default cutoff onset for free atom density etc. is infinite
  since the product basis is used (hybrid functionals, Hartree-Fock, GW etc.).
  Species Mg                  : Basic radial grid will be enhanced according to radial_multiplier =   4, to contain   163 grid points.

  Finished reading input file 'control.in'.

------------------------------------------------------------


------------------------------------------------------------
          Reading geometry description geometry.in.
------------------------------------------------------------
  | The smallest distance between any two atoms is         1.74900000 AA.
  | The first atom of this pair is atom number                      1 .
  | The second atom of this pair is atom number                     2 .
  Input structure read successfully.
  The structure contains        2 atoms,  and a total of         20.000 electrons.

  Input geometry:
  | No unit cell requested.
  | Atomic structure:
  |       Atom                x [A]            y [A]            z [A]
  |    1: Species Mg            0.00000000        0.00000000        0.00000000
  |    2: Species O             0.00000000        0.00000000        1.74900000


  Finished reading input file 'geometry.in'.



  Consistency checks for stacksize environment parameter are next.

  | Maximum stacksize for task 0: unlimited
  | Maximum stacksize for task 1: unlimited
  | Maximum stacksize for task 2: unlimited
  | Maximum stacksize for task 3: unlimited
  | Maximum stacksize for task 4: unlimited
  | Maximum stacksize for task 5: unlimited
  | Maximum stacksize for task 6: unlimited
  | Maximum stacksize for task 7: unlimited
  | Maximum stacksize for task 8: unlimited
  | Maximum stacksize for task 9: unlimited
  | Maximum stacksize for task 10: unlimited
  | Maximum stacksize for task 11: unlimited
  | Maximum stacksize for task 12: unlimited
  | Maximum stacksize for task 13: unlimited
  | Maximum stacksize for task 14: unlimited
  | Maximum stacksize for task 15: unlimited
  | Maximum stacksize for task 16: unlimited
  | Maximum stacksize for task 17: unlimited
  | Maximum stacksize for task 18: unlimited
  | Maximum stacksize for task 19: unlimited
  | Maximum stacksize for task 20: unlimited
  | Maximum stacksize for task 21: unlimited
  | Maximum stacksize for task 22: unlimited
  | Maximum stacksize for task 23: unlimited
  | Maximum stacksize for task 24: unlimited
  | Maximum stacksize for task 25: unlimited
  | Maximum stacksize for task 26: unlimited
  | Maximum stacksize for task 27: unlimited
  | Maximum stacksize for task 28: unlimited
  | Maximum stacksize for task 29: unlimited
  | Maximum stacksize for task 30: unlimited
  | Maximum stacksize for task 31: unlimited
  | Maximum stacksize for task 32: unlimited
  | Maximum stacksize for task 33: unlimited
  | Maximum stacksize for task 34: unlimited
  | Maximum stacksize for task 35: unlimited
  | Maximum stacksize for task 36: unlimited
  | Maximum stacksize for task 37: unlimited
  | Maximum stacksize for task 38: unlimited
  | Maximum stacksize for task 39: unlimited
  | Maximum stacksize for task 40: unlimited
  | Maximum stacksize for task 41: unlimited
  | Maximum stacksize for task 42: unlimited
  | Maximum stacksize for task 43: unlimited
  | Maximum stacksize for task 44: unlimited
  | Maximum stacksize for task 45: unlimited
  | Maximum stacksize for task 46: unlimited
  | Maximum stacksize for task 47: unlimited
  | Maximum stacksize for task 48: unlimited
  | Maximum stacksize for task 49: unlimited
  | Maximum stacksize for task 50: unlimited
  | Maximum stacksize for task 51: unlimited
  | Maximum stacksize for task 52: unlimited
  | Maximum stacksize for task 53: unlimited
  | Maximum stacksize for task 54: unlimited
  | Maximum stacksize for task 55: unlimited
  | Maximum stacksize for task 56: unlimited
  | Maximum stacksize for task 57: unlimited
  | Maximum stacksize for task 58: unlimited
  | Maximum stacksize for task 59: unlimited
  | Maximum stacksize for task 60: unlimited
  | Maximum stacksize for task 61: unlimited
  | Maximum stacksize for task 62: unlimited
  | Maximum stacksize for task 63: unlimited
  | Maximum stacksize for task 64: unlimited
  | Maximum stacksize for task 65: unlimited
  | Maximum stacksize for task 66: unlimited
  | Maximum stacksize for task 67: unlimited
  | Maximum stacksize for task 68: unlimited
  | Maximum stacksize for task 69: unlimited
  | Maximum stacksize for task 70: unlimited
  | Maximum stacksize for task 71: unlimited
  | Maximum stacksize for task 72: unlimited
  | Maximum stacksize for task 73: unlimited
  | Maximum stacksize for task 74: unlimited
  | Maximum stacksize for task 75: unlimited
  | Maximum stacksize for task 76: unlimited
  | Maximum stacksize for task 77: unlimited
  | Maximum stacksize for task 78: unlimited
  | Maximum stacksize for task 79: unlimited
  | Maximum stacksize for task 80: unlimited
  | Maximum stacksize for task 81: unlimited
  | Maximum stacksize for task 82: unlimited
  | Maximum stacksize for task 83: unlimited
  | Maximum stacksize for task 84: unlimited
  | Maximum stacksize for task 85: unlimited
  | Maximum stacksize for task 86: unlimited
  | Maximum stacksize for task 87: unlimited
  | Maximum stacksize for task 88: unlimited
  | Maximum stacksize for task 89: unlimited
  | Maximum stacksize for task 90: unlimited
  | Maximum stacksize for task 91: unlimited
  | Maximum stacksize for task 92: unlimited
  | Maximum stacksize for task 93: unlimited
  | Maximum stacksize for task 94: unlimited
  | Maximum stacksize for task 95: unlimited
  | Maximum stacksize for task 96: unlimited
  | Maximum stacksize for task 97: unlimited
  | Maximum stacksize for task 98: unlimited
  | Maximum stacksize for task 99: unlimited
  | Maximum stacksize for task 100: unlimited
  | Maximum stacksize for task 101: unlimited
  | Maximum stacksize for task 102: unlimited
  | Maximum stacksize for task 103: unlimited
  | Maximum stacksize for task 104: unlimited
  | Maximum stacksize for task 105: unlimited
  | Maximum stacksize for task 106: unlimited
  | Maximum stacksize for task 107: unlimited
  | Maximum stacksize for task 108: unlimited
  | Maximum stacksize for task 109: unlimited
  | Maximum stacksize for task 110: unlimited
  | Maximum stacksize for task 111: unlimited
  | Maximum stacksize for task 112: unlimited
  | Maximum stacksize for task 113: unlimited
  | Maximum stacksize for task 114: unlimited
  | Maximum stacksize for task 115: unlimited
  | Maximum stacksize for task 116: unlimited
  | Maximum stacksize for task 117: unlimited
  | Maximum stacksize for task 118: unlimited
  | Maximum stacksize for task 119: unlimited
  | Maximum stacksize for task 120: unlimited
  | Maximum stacksize for task 121: unlimited
  | Maximum stacksize for task 122: unlimited
  | Maximum stacksize for task 123: unlimited
  | Maximum stacksize for task 124: unlimited
  | Maximum stacksize for task 125: unlimited
  | Maximum stacksize for task 126: unlimited
  | Maximum stacksize for task 127: unlimited
  | Current stacksize for task 0: unlimited
  | Current stacksize for task 1: unlimited
  | Current stacksize for task 2: unlimited
  | Current stacksize for task 3: unlimited
  | Current stacksize for task 4: unlimited
  | Current stacksize for task 5: unlimited
  | Current stacksize for task 6: unlimited
  | Current stacksize for task 7: unlimited
  | Current stacksize for task 8: unlimited
  | Current stacksize for task 9: unlimited
  | Current stacksize for task 10: unlimited
  | Current stacksize for task 11: unlimited
  | Current stacksize for task 12: unlimited
  | Current stacksize for task 13: unlimited
  | Current stacksize for task 14: unlimited
  | Current stacksize for task 15: unlimited
  | Current stacksize for task 16: unlimited
  | Current stacksize for task 17: unlimited
  | Current stacksize for task 18: unlimited
  | Current stacksize for task 19: unlimited
  | Current stacksize for task 20: unlimited
  | Current stacksize for task 21: unlimited
  | Current stacksize for task 22: unlimited
  | Current stacksize for task 23: unlimited
  | Current stacksize for task 24: unlimited
  | Current stacksize for task 25: unlimited
  | Current stacksize for task 26: unlimited
  | Current stacksize for task 27: unlimited
  | Current stacksize for task 28: unlimited
  | Current stacksize for task 29: unlimited
  | Current stacksize for task 30: unlimited
  | Current stacksize for task 31: unlimited
  | Current stacksize for task 32: unlimited
  | Current stacksize for task 33: unlimited
  | Current stacksize for task 34: unlimited
  | Current stacksize for task 35: unlimited
  | Current stacksize for task 36: unlimited
  | Current stacksize for task 37: unlimited
  | Current stacksize for task 38: unlimited
  | Current stacksize for task 39: unlimited
  | Current stacksize for task 40: unlimited
  | Current stacksize for task 41: unlimited
  | Current stacksize for task 42: unlimited
  | Current stacksize for task 43: unlimited
  | Current stacksize for task 44: unlimited
  | Current stacksize for task 45: unlimited
  | Current stacksize for task 46: unlimited
  | Current stacksize for task 47: unlimited
  | Current stacksize for task 48: unlimited
  | Current stacksize for task 49: unlimited
  | Current stacksize for task 50: unlimited
  | Current stacksize for task 51: unlimited
  | Current stacksize for task 52: unlimited
  | Current stacksize for task 53: unlimited
  | Current stacksize for task 54: unlimited
  | Current stacksize for task 55: unlimited
  | Current stacksize for task 56: unlimited
  | Current stacksize for task 57: unlimited
  | Current stacksize for task 58: unlimited
  | Current stacksize for task 59: unlimited
  | Current stacksize for task 60: unlimited
  | Current stacksize for task 61: unlimited
  | Current stacksize for task 62: unlimited
  | Current stacksize for task 63: unlimited
  | Current stacksize for task 64: unlimited
  | Current stacksize for task 65: unlimited
  | Current stacksize for task 66: unlimited
  | Current stacksize for task 67: unlimited
  | Current stacksize for task 68: unlimited
  | Current stacksize for task 69: unlimited
  | Current stacksize for task 70: unlimited
  | Current stacksize for task 71: unlimited
  | Current stacksize for task 72: unlimited
  | Current stacksize for task 73: unlimited
  | Current stacksize for task 74: unlimited
  | Current stacksize for task 75: unlimited
  | Current stacksize for task 76: unlimited
  | Current stacksize for task 77: unlimited
  | Current stacksize for task 78: unlimited
  | Current stacksize for task 79: unlimited
  | Current stacksize for task 80: unlimited
  | Current stacksize for task 81: unlimited
  | Current stacksize for task 82: unlimited
  | Current stacksize for task 83: unlimited
  | Current stacksize for task 84: unlimited
  | Current stacksize for task 85: unlimited
  | Current stacksize for task 86: unlimited
  | Current stacksize for task 87: unlimited
  | Current stacksize for task 88: unlimited
  | Current stacksize for task 89: unlimited
  | Current stacksize for task 90: unlimited
  | Current stacksize for task 91: unlimited
  | Current stacksize for task 92: unlimited
  | Current stacksize for task 93: unlimited
  | Current stacksize for task 94: unlimited
  | Current stacksize for task 95: unlimited
  | Current stacksize for task 96: unlimited
  | Current stacksize for task 97: unlimited
  | Current stacksize for task 98: unlimited
  | Current stacksize for task 99: unlimited
  | Current stacksize for task 100: unlimited
  | Current stacksize for task 101: unlimited
  | Current stacksize for task 102: unlimited
  | Current stacksize for task 103: unlimited
  | Current stacksize for task 104: unlimited
  | Current stacksize for task 105: unlimited
  | Current stacksize for task 106: unlimited
  | Current stacksize for task 107: unlimited
  | Current stacksize for task 108: unlimited
  | Current stacksize for task 109: unlimited
  | Current stacksize for task 110: unlimited
  | Current stacksize for task 111: unlimited
  | Current stacksize for task 112: unlimited
  | Current stacksize for task 113: unlimited
  | Current stacksize for task 114: unlimited
  | Current stacksize for task 115: unlimited
  | Current stacksize for task 116: unlimited
  | Current stacksize for task 117: unlimited
  | Current stacksize for task 118: unlimited
  | Current stacksize for task 119: unlimited
  | Current stacksize for task 120: unlimited
  | Current stacksize for task 121: unlimited
  | Current stacksize for task 122: unlimited
  | Current stacksize for task 123: unlimited
  | Current stacksize for task 124: unlimited
  | Current stacksize for task 125: unlimited
  | Current stacksize for task 126: unlimited
  | Current stacksize for task 127: unlimited

  Consistency checks for the contents of control.in are next.

  MPI_IN_PLACE appears to work with this MPI implementation.
  | Keeping use_mpi_in_place .true. (see manual).
  Explicit treatment of the Coulomb operator is needed, but the RI method is not specified.
  Coulomb operator: Defaulting to 'RI-V' resolution of identity - RI_type = V
  Species O: Using default value for prodbas_acc =   1.000000E-02.
  Species O: Using default value max_l_prodbas =     5.
  Species Mg: Using default value for prodbas_acc =   1.000000E-03.
  Species Mg: Using default value max_l_prodbas =     5.
 * Species O: Specified min. number of angular integration points is   110
 * The angular momenta for this species require   194 for RI_type 'V'. Increasing angular_min to   194.
 * Species O: Grid shell     1 contains only   110 angular integration points.
 * Increasing to angular_min =   194 integration points.
 * This change is related to the three-center integrals used in RI_method 'V'.
  Target number of points in a grid batch is not set. Defaulting to  100
  Method for grid partitioning is not set. Defaulting to parallel hash+maxmin partitioning.
  Batch size limit is not set. Defaulting to    200
  By default, will store active basis functions for each batch.
  If in need of memory, prune_basis_once .false. can be used to disable this option.
  communication_type for Hartree potential was not specified.
  Defaulting to calc_hartree .
  Pulay mixer: Number of initial linear mixing iterations not set.
  Defaulting to    0 iterations.
  Work space size for distributed Hartree potential not set.
  Defaulting to   0.200000E+03 MB.
  Algorithm-dependent basis array size parameters:
  | n_max_pulay                         :       10
  Presetting      1001 iterations before the initial mixing cycle
  is restarted anyway using the sc_init_iter criterion / keyword.
  Presetting a factor      1.000 between actual scf density residual
  and density convergence criterion sc_accuracy_rho below which sc_init_iter
  takes no effect.
  Calculation of forces was not defined in control.in. No forces will be calculated.
  Geometry relaxation not requested: no relaxation will be performed.
  No accuracy limit for integral partition fn. given. Defaulting to  0.1000E-14.
  No threshold value for u(r) in integrations given. Defaulting to  0.1000E-05.
  No accuracy for occupation numbers given. Defaulting to  0.1000E-12.
  No threshold value for occupation numbers given. Defaulting to  0.0000E+00.
  No accuracy for fermi level given. Defaulting to  0.1000E-19.
  Maximum # of iterations to find E_F not set. Defaulting to  200.
  Will not use alltoall communication since running on < 1024 CPUs.
  Partitioning for Hartree potential was not defined. Using partition_type for integrals.
  | Reporting present value of keyword multip_moments_threshold  :       0.10000000E-09
  | This value may affect high angular momentum components of the Hartree potential in periodic systems.
  * Doing correlated calculations, so all empty single-particle states will be included.
  No q(lm)/r^(l+1) cutoff set for long-range Hartree potential.
  | Using default value of  0.100000E-09 .
  | Verify using the multipole_threshold keyword.
  Defaulting to new monopole extrapolation.
  Density update method: density matrix based density update selected.
  Charge integration errors on the 3D integration grid will be compensated
  by explicit normalization and distribution of residual charges.
  Use the "compensate_multipole_errors" flag to change this behaviour.
  Default to 1D ("use_logsbt") integrations for auxiliary 2-center integrals.
  Default onset of logarithmic r-grid for SBT is -38.000000000000
  Default onset of logarithmic k-grid for SBT is -25.000000000000
  Default range of logarithmic r- and k-grid for SBT is  45.000000000000
  Default number of logarithmic r- and k-grid for SBT is   4096
  *** Contour Deformation: Only support 2D parallization. Switching.
  Set 'collect_eigenvectors' to be '.true.' for GW/RPA/MP2, SCREX/COHSEX cluster calculations
  Set 'collect_eigenvectors' to be '.true.' for qpe_calc (quasiparticle energy).
  Set 'collect_eigenvectors' to be '.true.' for KS_method lapack_fast and serial.

  Consistency checks for the contents of geometry.in are next.

 * Attention. You are trying to treat an element beyond Ne (Z=10) without
 * accounting for relativity. This will lead to slight deviations from the true
 * physics of the system. Check your results if in doubt.
  Number of empty states per atom not set in control.in .
  | Since you are using a method that relies on the unoccupied spectrum
  | (MP2,GW,RPA et al.), will use the full Hamiltonian size (see below)
  | as the max. possible number of states (occupied plus empty).

  Structure-dependent array size parameters: 
  | Maximum number of distinct radial functions  :       36
  | Maximum number of basis functions            :      108
  | Number of Kohn-Sham states (occupied + empty):      108
------------------------------------------------------------

------------------------------------------------------------
          Preparing all fixed parts of the calculation.
------------------------------------------------------------
  Determining machine precision:
     2.2250738585072014E-308
  Setting up grids for atomic and cluster calculations.

  Creating wave function, potential, and density for free atoms.
  Runtime choices for atomic solver:
  | atomic solver xc        : PBE
  | compute density gradient: 1
  | compute kinetic density : F

  Species: O

  List of occupied orbitals and eigenvalues:
    n    l              occ      energy [Ha]    energy [eV]
    1    0           2.0000       -18.898644      -514.2583
    2    0           2.0000        -0.878848       -23.9147
    2    1           4.0000        -0.332128        -9.0377


  Species: Mg

  List of occupied orbitals and eigenvalues:
    n    l              occ      energy [Ha]    energy [eV]
    1    0           2.0000       -46.200856     -1257.1892
    2    0           2.0000        -2.923481       -79.5520
    3    0           2.0000        -0.172681        -4.6989
    2    1           6.0000        -1.714563       -46.6556


  Adding cutoff potential to free-atom effective potential.
  Creating fixed part of basis set: Ionic, confined, hydrogenic.

  O                    Gaussian:

  List of cartesian Gaussian basis orbitals: 
    L    l
    0    0
    0    0
    0    0
    0    0
    0    0
    0    0
    0    0
    1    1
    1    1
    1    1
    1    1
    2    2
    2    2
    2    2
    3    3
    3    3
    4    4


  Mg                   Gaussian:

  List of cartesian Gaussian basis orbitals: 
    L    l
    0    0
    0    0
    0    0
    0    0
    0    0
    0    0
    0    0
    0    0
    0    0
    1    1
    1    1
    1    1
    1    1
    1    1
    2    2
    2    2
    2    2
    2    2
    3    3

  Creating atomic-like basis functions for current effective potential.
  Assembling full basis from fixed parts.
  | Species O : gaussian orbital   0 s accepted.
  | Species O : gaussian orbital   0 s accepted.
  | Species O : gaussian orbital   0 s accepted.
  | Species O : gaussian orbital   0 s accepted.
  | Species O : gaussian orbital   0 s accepted.
  | Species O : gaussian orbital   0 s accepted.
  | Species O : gaussian orbital   0 s accepted.
  | Species O : gaussian orbital   1 p accepted.
  | Species O : gaussian orbital   1 p accepted.
  | Species O : gaussian orbital   1 p accepted.
  | Species O : gaussian orbital   1 p accepted.
  | Species O : gaussian orbital   2 d accepted.
  | Species O : gaussian orbital   2 d accepted.
  | Species O : gaussian orbital   2 d accepted.
  | Species O : gaussian orbital   3 f accepted.
  | Species O : gaussian orbital   3 f accepted.
  | Species O : gaussian orbital   4 g accepted.
  | Species Mg : gaussian orbital   0 s accepted.
  | Species Mg : gaussian orbital   0 s accepted.
  | Species Mg : gaussian orbital   0 s accepted.
  | Species Mg : gaussian orbital   0 s accepted.
  | Species Mg : gaussian orbital   0 s accepted.
  | Species Mg : gaussian orbital   0 s accepted.
  | Species Mg : gaussian orbital   0 s accepted.
  | Species Mg : gaussian orbital   0 s accepted.
  | Species Mg : gaussian orbital   0 s accepted.
  | Species Mg : gaussian orbital   1 p accepted.
  | Species Mg : gaussian orbital   1 p accepted.
  | Species Mg : gaussian orbital   1 p accepted.
  | Species Mg : gaussian orbital   1 p accepted.
  | Species Mg : gaussian orbital   1 p accepted.
  | Species Mg : gaussian orbital   2 d accepted.
  | Species Mg : gaussian orbital   2 d accepted.
  | Species Mg : gaussian orbital   2 d accepted.
  | Species Mg : gaussian orbital   2 d accepted.
  | Species Mg : gaussian orbital   3 f accepted.

  Basis size parameters after reduction:
  | Total number of radial functions:       36
  | Total number of basis functions :      108

  Per-task memory consumption for arrays in subroutine allocate_ext:
  |           9.225336MB.
  Testing on-site integration grid accuracy.
  |  Species  Function  <phi|h_atom|phi> (log., in eV)  <phi|h_atom|phi> (rad., in eV)
           1        1               -362.5768878964               -362.5780591086
           1        2               5562.5547625713               5562.5382888066
           1        3               1025.0233784559               1025.0223449092
           1        4                982.4978511341                982.4966498750
           1        5                433.1899307944                433.1894895256
           1        6                211.6154267980                211.6152499414
           1        7                 95.6225149986                 95.6224483249
           1        8                 18.1342168000                 18.1342169346
           1        9                 65.5300295478                 65.5300294570
           1       10                 49.0580174448                 49.0580169131
           1       11                 26.6733000437                 26.6732994262
           1       12                218.9177453526                218.9177448197
           1       13                147.8581850346                147.8581836466
           1       14                 71.7831007132                 71.7830993621
           1       15                249.7504167360                249.7504160676
           1       16                120.9441017008                120.9441003847
           1       17                235.2477364771                235.2477349267
           2       18              -1229.7975890472              -1229.7898752665
           2       19               2215.2013576793               2215.2502782577 ***
           2       20               2087.0342164038               2087.0673488871 ***
           2       21               1070.8578998254               1070.8720399464
           2       22                597.7535279536                597.7600599678
           2       23                310.3851879515                310.3880049272
           2       24                 69.6408554567                 69.6413888686
           2       25                 37.6637154210                 37.6639616857
           2       26                 19.0771663094                 19.0772734205
           2       27                -46.3599063517                -46.3599061317
           2       28                 10.3810855350                 10.3810858445
           2       29                 18.4670537482                 18.4670536075
           2       30                 12.1891705804                 12.1891703236
           2       31                  6.5750727718                  6.5750718851
           2       32                187.0924752455                187.0924741568
           2       33                 50.8490115668                 50.8490117057
           2       34                 23.3942954031                 23.3942955728
           2       35                  7.0096673520                  7.0096673151
           2       36                 12.9897192755                 12.9897192113
 * Note: Onsite integrals marked "***" above are less accurate than
 * onsite_accuracy_threshold =    0.03000 eV. Usually, this is harmless.
 * When in doubt, tighten the "radial" and/or "radial_multiplier" flags to check.

  Preparing densities etc. for the partition functions (integrals / Hartree potential).

  Preparations completed.
  max(cpu_time)          :      0.201 s.
  Wall clock time (cpu1) :      0.220 s.
------------------------------------------------------------

  Initializing index lists of integration centers etc. from given atomic structure:
  | Number of centers in hartree potential         :         2
  | Number of centers in hartree multipole         :         2
  | Number of centers in electron density summation:         2
  | Number of centers in basis integrals           :         2
  | Number of centers in integrals                 :         2
  | Number of centers in hamiltonian               :         2

------------------------------------------------------------
          Begin self-consistency loop: Initialization.

          Date     :  20240515, Time     :  123126.414
------------------------------------------------------------
  * Using 128 tasks for Scalapack Eigenvalue solver.
  Detailed listing of tasks and assigned k-points:
  (for non-periodic systems, the "k-point" denotes an internal label only)
   Task     0 k-point     1 on n2cn0172
   Task     1 k-point     1 on n2cn0172
   Task     2 k-point     1 on n2cn0172
   Task     3 k-point     1 on n2cn0172
   Task     4 k-point     1 on n2cn0172
   Task     5 k-point     1 on n2cn0172
   Task     6 k-point     1 on n2cn0172
   Task     7 k-point     1 on n2cn0172
   Task     8 k-point     1 on n2cn0172
   Task     9 k-point     1 on n2cn0172
   Task    10 k-point     1 on n2cn0172
   Task    11 k-point     1 on n2cn0172
   Task    12 k-point     1 on n2cn0172
   Task    13 k-point     1 on n2cn0172
   Task    14 k-point     1 on n2cn0172
   Task    15 k-point     1 on n2cn0172
   Task    16 k-point     1 on n2cn0172
   Task    17 k-point     1 on n2cn0172
   Task    18 k-point     1 on n2cn0172
   Task    19 k-point     1 on n2cn0172
   Task    20 k-point     1 on n2cn0172
   Task    21 k-point     1 on n2cn0172
   Task    22 k-point     1 on n2cn0172
   Task    23 k-point     1 on n2cn0172
   Task    24 k-point     1 on n2cn0172
   Task    25 k-point     1 on n2cn0172
   Task    26 k-point     1 on n2cn0172
   Task    27 k-point     1 on n2cn0172
   Task    28 k-point     1 on n2cn0172
   Task    29 k-point     1 on n2cn0172
   Task    30 k-point     1 on n2cn0172
   Task    31 k-point     1 on n2cn0172
   Task    32 k-point     1 on n2cn0172
   Task    33 k-point     1 on n2cn0172
   Task    34 k-point     1 on n2cn0172
   Task    35 k-point     1 on n2cn0172
   Task    36 k-point     1 on n2cn0172
   Task    37 k-point     1 on n2cn0172
   Task    38 k-point     1 on n2cn0172
   Task    39 k-point     1 on n2cn0172
   Task    40 k-point     1 on n2cn0172
   Task    41 k-point     1 on n2cn0172
   Task    42 k-point     1 on n2cn0172
   Task    43 k-point     1 on n2cn0172
   Task    44 k-point     1 on n2cn0172
   Task    45 k-point     1 on n2cn0172
   Task    46 k-point     1 on n2cn0172
   Task    47 k-point     1 on n2cn0172
   Task    48 k-point     1 on n2cn0172
   Task    49 k-point     1 on n2cn0172
   Task    50 k-point     1 on n2cn0172
   Task    51 k-point     1 on n2cn0172
   Task    52 k-point     1 on n2cn0172
   Task    53 k-point     1 on n2cn0172
   Task    54 k-point     1 on n2cn0172
   Task    55 k-point     1 on n2cn0172
   Task    56 k-point     1 on n2cn0172
   Task    57 k-point     1 on n2cn0172
   Task    58 k-point     1 on n2cn0172
   Task    59 k-point     1 on n2cn0172
   Task    60 k-point     1 on n2cn0172
   Task    61 k-point     1 on n2cn0172
   Task    62 k-point     1 on n2cn0172
   Task    63 k-point     1 on n2cn0172
   Task    64 k-point     1 on n2cn0172
   Task    65 k-point     1 on n2cn0172
   Task    66 k-point     1 on n2cn0172
   Task    67 k-point     1 on n2cn0172
   Task    68 k-point     1 on n2cn0172
   Task    69 k-point     1 on n2cn0172
   Task    70 k-point     1 on n2cn0172
   Task    71 k-point     1 on n2cn0172
   Task    72 k-point     1 on n2cn0172
   Task    73 k-point     1 on n2cn0172
   Task    74 k-point     1 on n2cn0172
   Task    75 k-point     1 on n2cn0172
   Task    76 k-point     1 on n2cn0172
   Task    77 k-point     1 on n2cn0172
   Task    78 k-point     1 on n2cn0172
   Task    79 k-point     1 on n2cn0172
   Task    80 k-point     1 on n2cn0172
   Task    81 k-point     1 on n2cn0172
   Task    82 k-point     1 on n2cn0172
   Task    83 k-point     1 on n2cn0172
   Task    84 k-point     1 on n2cn0172
   Task    85 k-point     1 on n2cn0172
   Task    86 k-point     1 on n2cn0172
   Task    87 k-point     1 on n2cn0172
   Task    88 k-point     1 on n2cn0172
   Task    89 k-point     1 on n2cn0172
   Task    90 k-point     1 on n2cn0172
   Task    91 k-point     1 on n2cn0172
   Task    92 k-point     1 on n2cn0172
   Task    93 k-point     1 on n2cn0172
   Task    94 k-point     1 on n2cn0172
   Task    95 k-point     1 on n2cn0172
   Task    96 k-point     1 on n2cn0172
   Task    97 k-point     1 on n2cn0172
   Task    98 k-point     1 on n2cn0172
   Task    99 k-point     1 on n2cn0172
   Task   100 k-point     1 on n2cn0172
   Task   101 k-point     1 on n2cn0172
   Task   102 k-point     1 on n2cn0172
   Task   103 k-point     1 on n2cn0172
   Task   104 k-point     1 on n2cn0172
   Task   105 k-point     1 on n2cn0172
   Task   106 k-point     1 on n2cn0172
   Task   107 k-point     1 on n2cn0172
   Task   108 k-point     1 on n2cn0172
   Task   109 k-point     1 on n2cn0172
   Task   110 k-point     1 on n2cn0172
   Task   111 k-point     1 on n2cn0172
   Task   112 k-point     1 on n2cn0172
   Task   113 k-point     1 on n2cn0172
   Task   114 k-point     1 on n2cn0172
   Task   115 k-point     1 on n2cn0172
   Task   116 k-point     1 on n2cn0172
   Task   117 k-point     1 on n2cn0172
   Task   118 k-point     1 on n2cn0172
   Task   119 k-point     1 on n2cn0172
   Task   120 k-point     1 on n2cn0172
   Task   121 k-point     1 on n2cn0172
   Task   122 k-point     1 on n2cn0172
   Task   123 k-point     1 on n2cn0172
   Task   124 k-point     1 on n2cn0172
   Task   125 k-point     1 on n2cn0172
   Task   126 k-point     1 on n2cn0172
   Task   127 k-point     1 on n2cn0172
  Tasks:   128 split into     16 X      8 BLACS grid
  Calculating block size based on n_basis =          108  max_nprow =           16  max_npcol =            8
  ScaLAPACK block size set to:            4
  Allocating        0.001 MB for ovlp
  Allocating        0.001 MB for ham
  Allocating        0.001 MB for eigenvec
  Required Scalapack workspace - INTEGER:          822  REAL:          1121
  Partitioning the integration grid into batches with parallel hashing+maxmin method.
  | Number of batches:     1836
  | Maximal batch size:     200
  | Minimal batch size:       4
  | Average batch size:      85.867
  | Standard deviation of batch sizes:      31.219

  Integration load balanced across   128 MPI tasks.
  Work distribution over tasks is as follows:
  Task     0 has       1232 integration points.
  Task     1 has       1217 integration points.
  Task     2 has       1231 integration points.
  Task     3 has       1228 integration points.
  Task     4 has       1177 integration points.
  Task     5 has       1227 integration points.
  Task     6 has       1313 integration points.
  Task     7 has       1178 integration points.
  Task     8 has       1223 integration points.
  Task     9 has       1219 integration points.
  Task    10 has       1179 integration points.
  Task    11 has       1348 integration points.
  Task    12 has       1229 integration points.
  Task    13 has       1224 integration points.
  Task    14 has       1247 integration points.
  Task    15 has       1228 integration points.
  Task    16 has       1174 integration points.
  Task    17 has       1225 integration points.
  Task    18 has       1251 integration points.
  Task    19 has       1229 integration points.
  Task    20 has       1229 integration points.
  Task    21 has       1195 integration points.
  Task    22 has       1226 integration points.
  Task    23 has       1175 integration points.
  Task    24 has       1225 integration points.
  Task    25 has       1198 integration points.
  Task    26 has       1248 integration points.
  Task    27 has       1246 integration points.
  Task    28 has       1201 integration points.
  Task    29 has       1194 integration points.
  Task    30 has       1246 integration points.
  Task    31 has       1228 integration points.
  Task    32 has       1230 integration points.
  Task    33 has       1228 integration points.
  Task    34 has       1345 integration points.
  Task    35 has       1218 integration points.
  Task    36 has       1229 integration points.
  Task    37 has       1230 integration points.
  Task    38 has       1228 integration points.
  Task    39 has       1227 integration points.
  Task    40 has       1230 integration points.
  Task    41 has       1178 integration points.
  Task    42 has       1223 integration points.
  Task    43 has       1228 integration points.
  Task    44 has       1177 integration points.
  Task    45 has       1248 integration points.
  Task    46 has       1235 integration points.
  Task    47 has       1174 integration points.
  Task    48 has       1174 integration points.
  Task    49 has       1221 integration points.
  Task    50 has       1233 integration points.
  Task    51 has       1246 integration points.
  Task    52 has       1240 integration points.
  Task    53 has       1255 integration points.
  Task    54 has       1348 integration points.
  Task    55 has       1253 integration points.
  Task    56 has       1232 integration points.
  Task    57 has       1346 integration points.
  Task    58 has       1220 integration points.
  Task    59 has       1252 integration points.
  Task    60 has       1223 integration points.
  Task    61 has       1281 integration points.
  Task    62 has       1228 integration points.
  Task    63 has       1344 integration points.
  Task    64 has       1266 integration points.
  Task    65 has       1191 integration points.
  Task    66 has       1227 integration points.
  Task    67 has       1279 integration points.
  Task    68 has       1264 integration points.
  Task    69 has       1218 integration points.
  Task    70 has       1247 integration points.
  Task    71 has       1309 integration points.
  Task    72 has       1235 integration points.
  Task    73 has       1291 integration points.
  Task    74 has       1229 integration points.
  Task    75 has       1241 integration points.
  Task    76 has       1175 integration points.
  Task    77 has       1225 integration points.
  Task    78 has       1221 integration points.
  Task    79 has       1290 integration points.
  Task    80 has       1194 integration points.
  Task    81 has       1235 integration points.
  Task    82 has       1227 integration points.
  Task    83 has       1243 integration points.
  Task    84 has       1220 integration points.
  Task    85 has       1231 integration points.
  Task    86 has       1293 integration points.
  Task    87 has       1229 integration points.
  Task    88 has       1237 integration points.
  Task    89 has       1174 integration points.
  Task    90 has       1251 integration points.
  Task    91 has       1232 integration points.
  Task    92 has       1232 integration points.
  Task    93 has       1243 integration points.
  Task    94 has       1187 integration points.
  Task    95 has       1249 integration points.
  Task    96 has       1247 integration points.
  Task    97 has       1213 integration points.
  Task    98 has       1231 integration points.
  Task    99 has       1251 integration points.
  Task   100 has       1225 integration points.
  Task   101 has       1248 integration points.
  Task   102 has       1224 integration points.
  Task   103 has       1173 integration points.
  Task   104 has       1224 integration points.
  Task   105 has       1234 integration points.
  Task   106 has       1218 integration points.
  Task   107 has       1220 integration points.
  Task   108 has       1245 integration points.
  Task   109 has       1228 integration points.
  Task   110 has       1248 integration points.
  Task   111 has       1193 integration points.
  Task   112 has       1173 integration points.
  Task   113 has       1243 integration points.
  Task   114 has       1227 integration points.
  Task   115 has       1226 integration points.
  Task   116 has       1219 integration points.
  Task   117 has       1276 integration points.
  Task   118 has       1216 integration points.
  Task   119 has       1292 integration points.
  Task   120 has       1226 integration points.
  Task   121 has       1229 integration points.
  Task   122 has       1228 integration points.
  Task   123 has       1229 integration points.
  Task   124 has       1177 integration points.
  Task   125 has       1175 integration points.
  Task   126 has       1175 integration points.
  Task   127 has       1220 integration points.
  Initializing partition tables, free-atom densities, potentials, etc. across the integration grid (initialize_grid_storage).
  | Net number of integration points:   157652
  | of which are non-zero points    :   157652
  Renormalizing the initial density to the exact electron count on the 3D integration grid.
  | Initial density: Formal number of electrons (from input files) :      20.0000000000
  | Integrated number of electrons on 3D grid     :      19.9999999544
  | Charge integration error                      :      -0.0000000456
  | Normalization factor for density and gradient :       1.0000000023
  Renormalizing the free-atom superposition density to the exact electron count on the 3D integration grid.
  | Formal number of electrons (from input files) :      20.0000000000
  | Integrated number of electrons on 3D grid     :      19.9999999544
  | Charge integration error                      :      -0.0000000456
  | Normalization factor for density and gradient :       1.0000000023
  Obtaining max. number of non-zero basis functions in each batch (get_n_compute_maxes).
  | Maximal number of non-zero basis functions:      103 in task     0
  | Maximal number of non-zero basis functions:       97 in task     1
  | Maximal number of non-zero basis functions:      105 in task     2
  | Maximal number of non-zero basis functions:      103 in task     3
  | Maximal number of non-zero basis functions:       99 in task     4
  | Maximal number of non-zero basis functions:      102 in task     5
  | Maximal number of non-zero basis functions:       99 in task     6
  | Maximal number of non-zero basis functions:      102 in task     7
  | Maximal number of non-zero basis functions:       99 in task     8
  | Maximal number of non-zero basis functions:       99 in task     9
  | Maximal number of non-zero basis functions:      103 in task    10
  | Maximal number of non-zero basis functions:      103 in task    11
  | Maximal number of non-zero basis functions:       99 in task    12
  | Maximal number of non-zero basis functions:      105 in task    13
  | Maximal number of non-zero basis functions:       99 in task    14
  | Maximal number of non-zero basis functions:      103 in task    15
  | Maximal number of non-zero basis functions:      105 in task    16
  | Maximal number of non-zero basis functions:      101 in task    17
  | Maximal number of non-zero basis functions:      101 in task    18
  | Maximal number of non-zero basis functions:      102 in task    19
  | Maximal number of non-zero basis functions:      105 in task    20
  | Maximal number of non-zero basis functions:      103 in task    21
  | Maximal number of non-zero basis functions:      103 in task    22
  | Maximal number of non-zero basis functions:      103 in task    23
  | Maximal number of non-zero basis functions:       99 in task    24
  | Maximal number of non-zero basis functions:      102 in task    25
  | Maximal number of non-zero basis functions:      102 in task    26
  | Maximal number of non-zero basis functions:      103 in task    27
  | Maximal number of non-zero basis functions:      102 in task    28
  | Maximal number of non-zero basis functions:      104 in task    29
  | Maximal number of non-zero basis functions:      105 in task    30
  | Maximal number of non-zero basis functions:       99 in task    31
  | Maximal number of non-zero basis functions:      103 in task    32
  | Maximal number of non-zero basis functions:       99 in task    33
  | Maximal number of non-zero basis functions:       99 in task    34
  | Maximal number of non-zero basis functions:      103 in task    35
  | Maximal number of non-zero basis functions:      104 in task    36
  | Maximal number of non-zero basis functions:      103 in task    37
  | Maximal number of non-zero basis functions:      103 in task    38
  | Maximal number of non-zero basis functions:      103 in task    39
  | Maximal number of non-zero basis functions:      104 in task    40
  | Maximal number of non-zero basis functions:      105 in task    41
  | Maximal number of non-zero basis functions:      105 in task    42
  | Maximal number of non-zero basis functions:       99 in task    43
  | Maximal number of non-zero basis functions:      104 in task    44
  | Maximal number of non-zero basis functions:       99 in task    45
  | Maximal number of non-zero basis functions:      102 in task    46
  | Maximal number of non-zero basis functions:      105 in task    47
  | Maximal number of non-zero basis functions:      103 in task    48
  | Maximal number of non-zero basis functions:      102 in task    49
  | Maximal number of non-zero basis functions:      103 in task    50
  | Maximal number of non-zero basis functions:      103 in task    51
  | Maximal number of non-zero basis functions:      105 in task    52
  | Maximal number of non-zero basis functions:      103 in task    53
  | Maximal number of non-zero basis functions:      103 in task    54
  | Maximal number of non-zero basis functions:      102 in task    55
  | Maximal number of non-zero basis functions:      105 in task    56
  | Maximal number of non-zero basis functions:      102 in task    57
  | Maximal number of non-zero basis functions:      103 in task    58
  | Maximal number of non-zero basis functions:      104 in task    59
  | Maximal number of non-zero basis functions:      103 in task    60
  | Maximal number of non-zero basis functions:      103 in task    61
  | Maximal number of non-zero basis functions:      102 in task    62
  | Maximal number of non-zero basis functions:      104 in task    63
  | Maximal number of non-zero basis functions:       99 in task    64
  | Maximal number of non-zero basis functions:      105 in task    65
  | Maximal number of non-zero basis functions:      102 in task    66
  | Maximal number of non-zero basis functions:       99 in task    67
  | Maximal number of non-zero basis functions:       99 in task    68
  | Maximal number of non-zero basis functions:       99 in task    69
  | Maximal number of non-zero basis functions:      105 in task    70
  | Maximal number of non-zero basis functions:      105 in task    71
  | Maximal number of non-zero basis functions:      102 in task    72
  | Maximal number of non-zero basis functions:      103 in task    73
  | Maximal number of non-zero basis functions:      102 in task    74
  | Maximal number of non-zero basis functions:      105 in task    75
  | Maximal number of non-zero basis functions:       98 in task    76
  | Maximal number of non-zero basis functions:      105 in task    77
  | Maximal number of non-zero basis functions:       99 in task    78
  | Maximal number of non-zero basis functions:      105 in task    79
  | Maximal number of non-zero basis functions:      102 in task    80
  | Maximal number of non-zero basis functions:      103 in task    81
  | Maximal number of non-zero basis functions:       99 in task    82
  | Maximal number of non-zero basis functions:      103 in task    83
  | Maximal number of non-zero basis functions:      102 in task    84
  | Maximal number of non-zero basis functions:      102 in task    85
  | Maximal number of non-zero basis functions:       99 in task    86
  | Maximal number of non-zero basis functions:      105 in task    87
  | Maximal number of non-zero basis functions:      103 in task    88
  | Maximal number of non-zero basis functions:      105 in task    89
  | Maximal number of non-zero basis functions:      105 in task    90
  | Maximal number of non-zero basis functions:      104 in task    91
  | Maximal number of non-zero basis functions:      103 in task    92
  | Maximal number of non-zero basis functions:      103 in task    93
  | Maximal number of non-zero basis functions:      104 in task    94
  | Maximal number of non-zero basis functions:       99 in task    95
  | Maximal number of non-zero basis functions:      102 in task    96
  | Maximal number of non-zero basis functions:      104 in task    97
  | Maximal number of non-zero basis functions:      103 in task    98
  | Maximal number of non-zero basis functions:      104 in task    99
  | Maximal number of non-zero basis functions:       99 in task   100
  | Maximal number of non-zero basis functions:      104 in task   101
  | Maximal number of non-zero basis functions:      102 in task   102
[...]
       2    2.0000     -507.9952     -132.5802      -83.7292 *** no convergence (see below) ***
       3    2.0000      -80.5485      -61.2005      -38.3793       10.5301      -92.8397
       4    2.0000      -47.6763      -52.5771      -37.1116 *** no convergence (see below) ***
       5    2.0000      -47.6763      -52.5771      -37.1116 *** no convergence (see below) ***
       6    2.0000      -47.6286      -52.5699      -37.0911 *** no convergence (see below) ***
       7    2.0000      -19.5221      -32.9717      -21.8155        9.7727      -20.9056
       8    2.0000       -6.0897      -18.6800      -15.3567        1.1611       -8.2519
       9    2.0000       -4.7914      -23.2864      -17.5743        3.7164       -6.7871
      10    2.0000       -4.7914      -23.2864      -17.5743        3.7164       -6.7871
      11    0.0000       -4.2899       -6.3836       -9.5570       -0.7760       -1.8925
      12    0.0000       -1.1893       -2.0291       -4.6448       -1.0690        0.3574
      13    0.0000       -1.1893       -2.0291       -4.6448       -1.0690        0.3574
      14    0.0000       -0.1315       -0.9667       -3.2718       -0.5189        1.6548
      15    0.0000        0.5813       -0.6114       -2.3569       -0.5857        1.7411
      16    0.0000        1.8680       -0.6540       -2.5308       -0.5439        3.2009
      17    0.0000        1.8680       -0.6540       -2.5308       -0.5439        3.2009
      18    0.0000        1.8793       -0.2964       -2.4820       -0.8378        3.2271
      19    0.0000        1.8793       -0.2964       -2.4820       -0.8378        3.2271
      20    0.0000        2.4279       -0.7271       -2.8493       -0.6732        3.8769
      21    0.0000        2.6843       -1.5161       -3.8669       -0.4895        4.5455
      22    0.0000        2.6843       -1.5161       -3.8669       -0.8105        4.2245
      23    0.0000        4.1399       -1.4807       -4.3353       -0.6301        6.3644
      24    0.0000        8.0358       -1.7771       -5.1939       -1.2303       10.2224
      25    0.0000        9.9056       -1.4670       -5.3172       -1.5737       12.1822
      26    0.0000       10.0506       -1.1722       -5.1382       -1.3023       12.7143
      27    0.0000       10.0506       -1.1722       -5.1382       -1.3265       12.6901
      28    0.0000       10.3808       -0.8398       -5.2684       -0.9099       13.8996
      29    0.0000       10.3808       -0.8398       -5.2684       -1.4305       13.3790
      30    0.0000       10.5439       -1.5116       -5.6485       -1.2085       13.4724
      31    0.0000       10.6881       -1.8093       -6.1695       -1.4616       13.5867
      32    0.0000       10.6881       -1.8093       -6.1695       -1.4623       13.5860
      33    0.0000       11.4411       -2.4411       -6.5565       -1.5327       14.0237
      34    0.0000       11.4411       -2.4411       -6.5565       -1.5141       14.0424
      35    0.0000       12.7933       -0.9005       -5.0959       -0.9896       15.9991
      36    0.0000       12.7933       -0.9005       -5.0959       -1.0063       15.9825
      37    0.0000       13.0124       -0.3046       -4.1175       -1.0471       15.7781
      38    0.0000       13.0124       -0.3046       -4.1175       -1.2920       15.5332
      39    0.0000       13.5546       -1.6624       -5.8456       -1.1787       16.5592
      40    0.0000       16.4930       -1.3885       -6.0578        0.3094       21.4717
      41    0.0000       16.4930       -1.3885       -6.0578       -0.4413       20.7210
      42    0.0000       22.3845       -3.7226      -10.1696       -2.1639       26.6675
      43    0.0000       24.7146       -3.5521       -9.9852       -0.9806       30.1671
      44    0.0000       32.4165       -3.6133      -10.7909       -3.6125       35.9816
      45    0.0000       32.4165       -3.6133      -10.7909       -3.4507       36.1434
      46    0.0000       34.1425       -4.2520      -11.7902       -3.0570       38.6236
      47    0.0000       35.8825       -4.9958      -12.9669       -2.4945       41.3591
      48    0.0000       35.8825       -4.9958      -12.9669       -2.3996       41.4540
      49    0.0000       37.5180       -4.1924      -12.1926       -2.4604       43.0577
      50    0.0000       38.6831       -3.4722      -11.1263       -3.4661       42.8712
      51    0.0000       38.6831       -3.4722      -11.1263       -3.2940       43.0433
      52    0.0000       40.6925       -3.6173      -11.8475       -2.3317       46.5909
      53    0.0000       40.6925       -3.6173      -11.8475       -2.3156       46.6070
      54    0.0000       40.7588       -3.6403      -11.7880       -2.3115       46.5950
      55    0.0000       40.7588       -3.6403      -11.7880       -2.0242       46.8823
      56    0.0000       42.1723       -4.2309      -13.3483       -3.7913       47.4984
      57    0.0000       42.1723       -4.2309      -13.3483       -3.5260       47.7637
      58    0.0000       44.0095       -4.1468      -12.8556       -2.9915       49.7268
      59    0.0000       53.6073       -5.5222      -14.5699       -1.3374       61.3176
      60    0.0000       60.7962       -4.0601      -14.2574       -1.6758       69.3177
      61    0.0000       85.1109       -2.6719      -13.7822       -0.7205       95.5007
      62    0.0000       85.1109       -2.6719      -13.7822       -0.7738       95.4474
      63    0.0000       85.1962       -2.6623      -13.8113       -1.9590       94.3861
      64    0.0000       85.1962       -2.6623      -13.8113       -2.3201       94.0250
      65    0.0000       87.2119       -2.8865      -14.2556       -2.3975       96.1836
      66    0.0000       87.2119       -2.8865      -14.2556       -0.9361       97.6450
      67    0.0000       88.0633       -6.5989      -18.9644       -4.3352       96.0936
      68    0.0000       99.2208       -4.6112      -17.1603       -2.8724      108.8975
      69    0.0000      104.0830       -5.4260      -18.8932       -6.0667      111.4835
      70    0.0000      104.0830       -5.4260      -18.8932       -5.9546      111.5956
      71    0.0000      110.0211       -4.7575      -18.3314       -4.7931      118.8020
      72    0.0000      110.0211       -4.7575      -18.3314       -4.6518      118.9433
      73    0.0000      116.5924       -4.5495      -18.2903       -4.5180      125.8152
      74    0.0000      137.1221       -7.9431      -25.4873       -7.8517      146.8146
      75    0.0000      137.1221       -7.9431      -25.4873       -8.4544      146.2119
      76    0.0000      149.5756       -6.9171      -24.4264       -7.9402      159.1447
      77    0.0000      213.4452      -14.1024      -34.5418       -4.6302      229.2545
      78    0.0000      213.4452      -14.1024      -34.5418       -4.5885      229.2962
      79    0.0000      214.0883      -13.7303      -34.0912       -4.4639      229.9854
      80    0.0000      214.0883      -13.7303      -34.0912       -4.4065      230.0428
      81    0.0000      218.5117      -13.2299      -33.5298       -4.3883      234.4233
      82    0.0000      234.1776       -8.2488      -26.7365       -2.6593      250.0059
      83    0.0000      239.6595       -2.3389      -18.8424       -2.0589      254.1041
      84    0.0000      239.6595       -2.3389      -18.8424       -2.0415      254.1215
      85    0.0000      240.0991       -2.3670      -18.9145       -1.4244      255.2222
      86    0.0000      240.0991       -2.3670      -18.9145       -2.2008      254.4458
      87    0.0000      240.6643       -2.4141      -19.0180       -2.0368      255.2314
      88    0.0000      240.6643       -2.4141      -19.0180       -1.8032      255.4650
      89    0.0000      240.6981       -2.5459      -19.1388       -2.4556      254.8355
      90    0.0000      240.6981       -2.5459      -19.1388       -2.5001      254.7909
      91    0.0000      249.5641       -6.7349      -25.0521       -3.1687      264.7127
      92    0.0000      295.8752       -3.5995      -23.3688       -5.7205      309.9240
      93    0.0000      295.8752       -3.5995      -23.3688       -5.3453      310.2992
      94    0.0000      295.9597       -3.4534      -23.1157       -4.6135      311.0085
      95    0.0000      295.9598       -3.4534      -23.1157       -4.7344      310.8876
      96    0.0000      297.2609       -3.3750      -22.9748       -4.8498      312.0109
      97    0.0000      297.2609       -3.3750      -22.9748       -4.9156      311.9451
      98    0.0000      306.0340       -3.5453      -23.1834       -3.9382      321.7339
      99    0.0000      323.8831       -4.5324      -25.8723       -7.5240      337.6990
     100    0.0000      323.8834       -4.5324      -25.8723       -8.6336      336.5897
     101    0.0000      328.3986       -4.1761      -25.3250       -6.7340      342.8135
     102    0.0000      328.3986       -4.1761      -25.3250       -6.6930      342.8546
     103    0.0000      333.0703       -4.1264      -25.0985       -4.6261      349.4163
     104    0.0000      344.3109      -11.2562      -33.5964       -5.1994      361.4517
     105    0.0000      930.4832      -22.3109      -61.3040       -2.2498      967.2266
     106    0.0000     1274.9924      -18.3493      -62.4422       -2.2978     1316.7874
     107    0.0000     5303.7169      -39.4579     -143.8913       -3.1328     5405.0175
     108    0.0000     6838.1490      -20.8328     -126.4421       -1.6218     6942.1364
----------------------------------------------------------------------------------------

   DFT/Hartree-Fock HOMO level (eV):    -4.7914   -4.7914

   Quasiparticle HOMO level (eV):       -6.7871   -6.7871
----------------------------------------------------------------------------------------

  Printing out the self-energy matrix element: 10 for spin  1

------------------------------------------------------------------------------------------------------

  Start calculating the spectral function for state: 10

------------------------------------------------------------------------------------------------------

          | Total time for transforming the 3-center integrals :        0.190 s
          | Total time for calculating the exchange-correlation
                                  energy matrix elements   :        0.006 s
          | Total time for calculating polarisability     
                        for imaginary frequencies          :        6.371 s
          | Total time for calculating self energy 
                        on imaginary frequency axis        :       83.747 s
          | Total time for calculating the quasiparticle 
                  energies with analytic continuation      :        0.016 s
          | Total time for calculating the quasiparticle 
                  energies with contour deformation        :      409.190 s

------------------------------------------------------------------------------
  Final output of selected total energy values:

  The following output summarizes some interesting total energy values
  at the end of a run (AFTER all relaxation, molecular dynamics, etc.).

  | Total energy of the DFT / Hartree-Fock s.c.f. calculation      :          -7485.144358216 eV
  | Final zero-broadening corrected energy (caution - metals only) :          -7485.144358216 eV
  | For reference only, the value of 1 Hartree used in FHI-aims is :             27.211384500 eV

  Before relying on these values, please be sure to understand exactly which
  total energy value is referred to by a given number. Different objects may
  all carry the same name 'total energy'. Definitions:

  Total energy of the DFT / Hartree-Fock s.c.f. calculation:
  | Note that this energy does not include ANY quantities calculated after the
  | s.c.f. cycle, in particular not ANY RPA, MP2, etc. many-body perturbation terms.

  Final zero-broadening corrected energy:
  | For metallic systems only, a broadening of the occupation numbers at the Fermi
  | level can be extrapolated back to zero broadening by an electron-gas inspired
  | formula. For all systems that are not real metals, this value can be
  | meaningless and should be avoided.

------------------------------------------------------------------------------
  Methods described in the following list of references were used in this FHI-aims run.
  If you publish the results, please make sure to cite these reference if they apply.
  FHI-aims is an academic code, and for our developers (often, Ph.D. students
  and postdocs), scientific credit in the community is essential.
  Thank you for helping us!

  For any use of FHI-aims, please cite:

    Volker Blum, Ralf Gehrke, Felix Hanke, Paula Havu, Ville Havu,
    Xinguo Ren, Karsten Reuter, and Matthias Scheffler
    'Ab initio molecular simulations with numeric atom-centered orbitals'
    Computer Physics Communications 180, 2175-2196 (2009)
    http://doi.org/10.1016/j.cpc.2009.06.022


  For Hartree-Fock, hybrid functionals, or many-body perturbation theory used in your run, please cite:

    Xinguo Ren, Patrick Rinke, Volker Blum, Juergen Wieferink, Alex Tkatchenko,
    Andrea Sanfilippo, Karsten Reuter, and Matthias Scheffler,
    'Resolution-of-identity approach to Hartree-Fock, hybrid density functionals,
    RPA, MP2, and GW with numeric atom-centered orbital basis functions'
    New Journal of Physics 14, 053020 (2012).
    http://doi.org/10.1088/1367-2630/14/5/053020


  The ELSI infrastructure was used in your run to solve the Kohn-Sham electronic structure.
  Please check out http://elsi-interchange.org to learn more.
  If scalability is important for your project, please acknowledge ELSI by citing:

    V. W-z. Yu, F. Corsetti, A. Garcia, W. P. Huhn, M. Jacquelin, W. Jia,
    B. Lange, L. Lin, J. Lu, W. Mi, A. Seifitokaldani, A. Vazquez-Mayagoitia,
    C. Yang, H. Yang, and V. Blum
    'ELSI: A unified software interface for Kohn-Sham electronic structure solvers'
    Computer Physics Communications 222, 267-285 (2018).
    http://doi.org/10.1016/j.cpc.2017.09.007


  For the real-space grid partitioning and parallelization used in this calculation, please cite:

    Ville Havu, Volker Blum, Paula Havu, and Matthias Scheffler,
    'Efficient O(N) integration for all-electron electronic structure calculation'
    'using numerically tabulated basis functions'
    Journal of Computational Physics 228, 8367-8379 (2009).
    http://doi.org/10.1016/j.jcp.2009.08.008

  Of course, there are many other important community references, e.g., those cited in the
  above references. Our list is limited to references that describe implementations in the
  FHI-aims code. The reason is purely practical (length of this list) - please credit others as well.

 * Warning - angular integration grids had to be adjusted for use with RI_method 'V'.
 * Background: You are using an electronic structure method that requires RI_method 'V'
 * for the resolution of identity of the Coulomb operator. (See Ren et al.,
 * New J. Phys 2012 for details.) This method requires three-center integrations
 * to be carried out on FHI-aims' normal angular and radial integration grids.
 * (See FHI-aims CPC Blum et al. 2009, p. 2183 for grid details and references.)
 * One of the angular grids specified in your control.in file was not large
 * enough for the maximal angular momenta of orbital and product basis functions
 * for its species.
 * This can lead to atomic total energy errors which cancel in energy differences.
 * Effective Sep 22, 2014, we have changed the default behavior of the code to
 * simply 'upgrade' the angular grids internally to a safe setting in this case.
 * Please be sure to NOT mix total energies from before and after the change.

------------------------------------------------------------
          Leaving FHI-aims.
          Date     :  20240515, Time     :  124427.949

          Computational steps:
          | Number of self-consistency cycles          :           19
          | Number of SCF (re)initializations          :            1

          Detailed time accounting                     :  max(cpu_time)    wall_clock(cpu1)
          | Total time                                  :      776.036 s         782.394 s
          | Preparation time                            :        0.201 s           0.220 s
          | Boundary condition initalization            :        0.001 s           0.011 s
          | Grid partitioning                           :        0.101 s           0.101 s
          | Preloading free-atom quantities on grid     :        0.022 s           0.022 s
          | Free-atom superposition energy              :        0.002 s           0.002 s
          | Total time for integrations                 :        0.254 s           0.231 s
          | Product basis setup: Total time             :        0.000 s           0.000 s
          | Product basis: | 3-center integrations     :(       2.295 s)  (       2.304 s)
          | Product basis: | 2-center integrations     :(       0.108 s)  (       0.108 s)
          | Product basis: | 2-center linear algebra   :(       0.624 s)  (       0.634 s)
          | Product basis: | 3-center x 2-center       :(       0.564 s)  (       0.734 s)
          | Transforming ovlp_3fn to ovlp_3KS           :        0.190 s           0.192 s
          | Screened Coulomb matrix W_mn(iw)            :       89.693 s          90.221 s
          | Polarisability matrix Pi_PQ(iw)             :        6.371 s           6.371 s
          | Total time for GW calculation               :      767.853 s         773.683 s
          | GW self-energy (analytic cont.)             :       90.154 s          90.708 s
          | Contour def: | Solving qp equations         :      409.190 s         411.058 s
          | Contour def: | GW self-energy               :      676.313 s         678.631 s
          | Contour def: | Scr Coulomb matrix W_mn(w)   :      675.289 s         677.632 s
          | Contour def: | CD-WAC W_mn(w) and Pade      :        0.000 s           0.000 s
          | Contour def: | Scr aux Coulomb mat W_PQ(w)  :      499.960 s         501.686 s
          | Contour def: | Polarisability Pi_PQ(w)      :      280.844 s         280.774 s
          | Contour def: | Printing self-energy CD      :      258.681 s         259.931 s
          | Contour def: | Spectral function CD         :        9.708 s          11.580 s
          | Total time for solution of K.-S. equations  :        0.798 s           0.800 s
          | Total time for density update               :        0.365 s           0.366 s
          | Total time for mixing                       :        1.451 s           0.641 s
          | Total time for Hartree multipole update     :        0.408 s           0.413 s
          | Total time for Hartree multipole sum        :        0.152 s           0.152 s
          | Total time for total energy evaluation      :        0.007 s           0.006 s

          Partial memory accounting:
          | Residual value for overall tracked memory usage across tasks:     0.000000 MB (should be 0.000000 MB)
          | Peak values for overall tracked memory usage:
          |   Minimum:        1.191 MB (on task   1 after allocating gradient_basis_wave)
          |   Maximum:        1.277 MB (on task   2 after allocating gradient_basis_wave)
          |   Average:        1.246 MB
          | Largest tracked array allocation:
          |   Minimum:        0.444 MB (gradient_basis_wave on task   1)
          |   Maximum:        0.481 MB (gradient_basis_wave on task   2)
          |   Average:        0.468 MB
          Note:  These values currently only include a subset of arrays which are explicitly tracked.
          The "true" memory usage will be greater.

          Have a nice day.
------------------------------------------------------------
