------------------------------------------------------------
          Invoking FHI-aims ...

          When using FHI-aims, please cite the following reference:

            Volker Blum, Ralf Gehrke, Felix Hanke, Paula Havu,
            Ville Havu, Xinguo Ren, Karsten Reuter, and Matthias Scheffler,
            'Ab Initio Molecular Simulations with Numeric Atom-Centered Orbitals',
            Computer Physics Communications 180, 2175-2196 (2009)

          In addition, many other developments in FHI-aims are likely important for
          your particular application. A partial list of references is given at the end of
          this file. Thank you for giving credit to the authors of these developments.

          For any questions about FHI-aims, please visit our slack channel at

            https://fhi-aims.slack.com

          and our main development and support site at

            https://aims-git.rz-berlin.mpg.de .

          The latter site, in particular, has a wiki to collect information, as well
          as an issue tracker to log discussions, suggest improvements, and report issues
          or bugs. https://aims-git.rz-berlin.mpg.de is also the main development site
          of the project and all new and updated code versions can be obtained there.
          Please send an email to aims-coordinators@fhi-berlin.mpg.de and we will add
          you to these sites. They are for you and everyone is welcome there.

------------------------------------------------------------



  Date     :  20240515, Time     :  123124.971
  Time zero on CPU 1             :   0.288805300000000E+01  s.
  Internal wall clock time zero  :           485008284.971  s.

  FHI-aims created a unique identifier for this run for later identification
  aims_uuid : 03EBCFE2-713D-4DC9-A534-EAD658CE5459

  Build configuration of the current instance of FHI-aims
  -------------------------------------------------------
  FHI-aims version      : 221103.1
  Commit number         : GITDIR-NOTFOUND
  CMake host system     : Linux-4.18.0-372.32.1.el8_6.x86_64
  CMake version         : 3.24.3
  Fortran compiler      : /opt/software/pc2/EB-SW/software/OpenMPI/4.1.4-GCC-12.2.0/bin/mpifort (GNU) version 12.2.0
  Fortran compiler flags: -O3 -ffree-line-length-none -fallow-argument-mismatch -march=znver3 -mprefer-vector-width=256
  C compiler            : /opt/software/pc2/EB-SW/software/GCCcore/12.2.0/bin/gcc (GNU) version 12.2.0
  C compiler flags      : -O3 -DNDEBUG -funroll-loops -march=znver3 -mprefer-vector-width=256
  HIP compiler          :
  HIP compiler flags    :
  HIP GPU arch          :
  Using MPI
  Using ScaLAPACK
  Using LibXC
  Using i-PI
  Using RLSY
  Linking against: /opt/software/pc2/EB-SW/software/ScaLAPACK/2.2.0-gompi-2022b-fb/lib/libscalapack.so
                   /opt/software/pc2/EB-SW/software/OpenBLAS/0.3.21-GCC-12.2.0/lib/libopenblas.so

  Using      128 parallel tasks.
  Task        0 on host n2cn0392 reporting.
  Task        1 on host n2cn0392 reporting.
  Task        2 on host n2cn0392 reporting.
  Task        3 on host n2cn0392 reporting.
  Task        4 on host n2cn0392 reporting.
  Task        5 on host n2cn0392 reporting.
  Task        6 on host n2cn0392 reporting.
  Task        7 on host n2cn0392 reporting.
  Task        8 on host n2cn0392 reporting.
  Task        9 on host n2cn0392 reporting.
  Task       10 on host n2cn0392 reporting.
  Task       11 on host n2cn0392 reporting.
  Task       12 on host n2cn0392 reporting.
  Task       13 on host n2cn0392 reporting.
  Task       14 on host n2cn0392 reporting.
  Task       15 on host n2cn0392 reporting.
  Task       16 on host n2cn0392 reporting.
  Task       17 on host n2cn0392 reporting.
  Task       18 on host n2cn0392 reporting.
  Task       19 on host n2cn0392 reporting.
  Task       20 on host n2cn0392 reporting.
  Task       21 on host n2cn0392 reporting.
  Task       22 on host n2cn0392 reporting.
  Task       23 on host n2cn0392 reporting.
  Task       24 on host n2cn0392 reporting.
  Task       25 on host n2cn0392 reporting.
  Task       26 on host n2cn0392 reporting.
  Task       27 on host n2cn0392 reporting.
  Task       28 on host n2cn0392 reporting.
  Task       29 on host n2cn0392 reporting.
  Task       30 on host n2cn0392 reporting.
  Task       31 on host n2cn0392 reporting.
  Task       32 on host n2cn0392 reporting.
  Task       33 on host n2cn0392 reporting.
  Task       34 on host n2cn0392 reporting.
  Task       35 on host n2cn0392 reporting.
  Task       36 on host n2cn0392 reporting.
  Task       37 on host n2cn0392 reporting.
  Task       38 on host n2cn0392 reporting.
  Task       39 on host n2cn0392 reporting.
  Task       40 on host n2cn0392 reporting.
  Task       41 on host n2cn0392 reporting.
  Task       42 on host n2cn0392 reporting.
  Task       43 on host n2cn0392 reporting.
  Task       44 on host n2cn0392 reporting.
  Task       45 on host n2cn0392 reporting.
  Task       46 on host n2cn0392 reporting.
  Task       47 on host n2cn0392 reporting.
  Task       48 on host n2cn0392 reporting.
  Task       49 on host n2cn0392 reporting.
  Task       50 on host n2cn0392 reporting.
  Task       51 on host n2cn0392 reporting.
  Task       52 on host n2cn0392 reporting.
  Task       53 on host n2cn0392 reporting.
  Task       54 on host n2cn0392 reporting.
  Task       55 on host n2cn0392 reporting.
  Task       56 on host n2cn0392 reporting.
  Task       57 on host n2cn0392 reporting.
  Task       58 on host n2cn0392 reporting.
  Task       59 on host n2cn0392 reporting.
  Task       60 on host n2cn0392 reporting.
  Task       61 on host n2cn0392 reporting.
  Task       62 on host n2cn0392 reporting.
  Task       63 on host n2cn0392 reporting.
  Task       64 on host n2cn0392 reporting.
  Task       65 on host n2cn0392 reporting.
  Task       66 on host n2cn0392 reporting.
  Task       67 on host n2cn0392 reporting.
  Task       68 on host n2cn0392 reporting.
  Task       69 on host n2cn0392 reporting.
  Task       70 on host n2cn0392 reporting.
  Task       71 on host n2cn0392 reporting.
  Task       72 on host n2cn0392 reporting.
  Task       73 on host n2cn0392 reporting.
  Task       74 on host n2cn0392 reporting.
  Task       75 on host n2cn0392 reporting.
  Task       76 on host n2cn0392 reporting.
  Task       77 on host n2cn0392 reporting.
  Task       78 on host n2cn0392 reporting.
  Task       79 on host n2cn0392 reporting.
  Task       80 on host n2cn0392 reporting.
  Task       81 on host n2cn0392 reporting.
  Task       82 on host n2cn0392 reporting.
  Task       83 on host n2cn0392 reporting.
  Task       84 on host n2cn0392 reporting.
  Task       85 on host n2cn0392 reporting.
  Task       86 on host n2cn0392 reporting.
  Task       87 on host n2cn0392 reporting.
  Task       88 on host n2cn0392 reporting.
  Task       89 on host n2cn0392 reporting.
  Task       90 on host n2cn0392 reporting.
  Task       91 on host n2cn0392 reporting.
  Task       92 on host n2cn0392 reporting.
  Task       93 on host n2cn0392 reporting.
  Task       94 on host n2cn0392 reporting.
  Task       95 on host n2cn0392 reporting.
  Task       96 on host n2cn0392 reporting.
  Task       97 on host n2cn0392 reporting.
  Task       98 on host n2cn0392 reporting.
  Task       99 on host n2cn0392 reporting.
  Task      100 on host n2cn0392 reporting.
  Task      101 on host n2cn0392 reporting.
  Task      102 on host n2cn0392 reporting.
  Task      103 on host n2cn0392 reporting.
  Task      104 on host n2cn0392 reporting.
  Task      105 on host n2cn0392 reporting.
  Task      106 on host n2cn0392 reporting.
  Task      107 on host n2cn0392 reporting.
  Task      108 on host n2cn0392 reporting.
  Task      109 on host n2cn0392 reporting.
  Task      110 on host n2cn0392 reporting.
  Task      111 on host n2cn0392 reporting.
  Task      112 on host n2cn0392 reporting.
  Task      113 on host n2cn0392 reporting.
  Task      114 on host n2cn0392 reporting.
  Task      115 on host n2cn0392 reporting.
  Task      116 on host n2cn0392 reporting.
  Task      117 on host n2cn0392 reporting.
  Task      118 on host n2cn0392 reporting.
  Task      119 on host n2cn0392 reporting.
  Task      120 on host n2cn0392 reporting.
  Task      121 on host n2cn0392 reporting.
  Task      122 on host n2cn0392 reporting.
  Task      123 on host n2cn0392 reporting.
  Task      124 on host n2cn0392 reporting.
  Task      125 on host n2cn0392 reporting.
  Task      126 on host n2cn0392 reporting.
  Task      127 on host n2cn0392 reporting.

  Performing system and environment tests:
  | Environment variable OMP_NUM_THREADS correctly set to 1.
  | Checking for ScaLAPACK...
  | Testing pdtran()...
  | All pdtran() tests passed.

  Obtaining array dimensions for all initial allocations:
  
  -----------------------------------------------------------------------
  Parsing control.in (first pass over file, find array dimensions only).
  The contents of control.in will be repeated verbatim below
  unless switched off by setting 'verbatim_writeout .false.' .
  in the first line of control.in .
  -----------------------------------------------------------------------
  
  #control.in header for database project
  #using def2-QVPZ basis for light and heavy elements
  
  #########################################
    xc                 pbe0
    qpe_calc           gw
    hybrid_xc_coeff 0.25
    #RI_method v
    #spin               collinear
    #default_initial_moment 0.01
    spin none
  
    anacon_type  1
    n_anacon_par 128
    frequency_points 600
    contour_def_gw   1 17
    contour_eta 0.004
    state_lower_limit 1
    state_upper_limit 500
    print_self_energy 6 -20.0 0.0
  
    relativistic none
    override_relativity .true.
    partition_type rho_r2
    density_update_method density_matrix
  
    calc_spectral_func -20.0 0.0 0.01
    spectral_func_state 6
  
  #########################################
    occupation_type    gaussian 0.000001
    mixer              pulay
      n_max_pulay        10
      charge_mix_param   0.2
    sc_accuracy_rho    1E-5
    sc_accuracy_eev    1E-5
    sc_accuracy_etot   1E-5
    sc_iter_limit      400
  #########################################
    prodbas_threshold  1.e-5
    KS_method          serial
    empty_states       25000
    # Do not check for overlapping xxx matrix
    # Not recommended
    # Necessary for large basis sets
    override_illconditioning .true.
    #basis_threshold 1.e-5
  #########################################
  ################################################################################
  #
  #  FHI-aims code project
  #  VB, Fritz-Haber Institut, 2007
  #
  #  Suggested "safe" defaults for B atom (to be pasted into control.in file)
  #
  ################################################################################
    species        B
  #     global species definitions
      nucleus             5
      mass                10.811
  #
      l_hartree           8
  #
      cut_pot             4.0  2.0  1.0
      basis_dep_cutoff    0.d0
  #
      radial_base         32 7.0
      radial_multiplier   2
      angular_grids       specified
        division   0.3742  110
        division   0.5197  194
        division   0.5753  302
        division   0.7664  434
  #      division   0.8392  770
  #      division   1.6522  974
  #      outer_grid   974
        outer_grid   590
  ################################################################################
  #
  #  Definition of "minimal" basis
  #
  ################################################################################
  #     valence basis states
      valence      2  s   2.
      valence      2  p   1.
  #     ion occupancy
      ion_occ      2  s   1.
  
  
  
              # The default minimal basis should not be included
              include_min_basis .false.
              # Use spherical functions?
              pure_gauss .true.
              # B def2-QZVP
  gaussian 0 8
  46447.6670560              0.38388681014E-04
   6957.6889042              0.29836770197E-03
   1583.4428403              0.15645478806E-02
    448.46601009             0.65476770742E-02
    146.28639262             0.23139008388E-01
     52.784386084            0.69615799357E-01
     20.519396170            0.17119636876
      8.4185659258           0.31913191837
  gaussian 0 2
     36.510018312            0.78990617244E-01
     10.541854005            0.78926384265
  gaussian 0 1 3.6004091387
  gaussian 0 1 1.5617023749
  gaussian 0 1 0.44997370775
  gaussian 0 1 0.18075230237
  gaussian 0 1 0.71596696319E-01
  gaussian 1 5
     72.240462760            0.86539170411E-03
     16.807707208            0.68762067365E-02
      5.2259410747           0.30976687148E-01
      1.8508350671           0.10432357913
      0.72206782663          0.26164137577
  gaussian 1 1 0.29491018056
  gaussian 1 1 0.12201141839
  gaussian 1 1 0.49865393625E-01
  gaussian 2 1 1.11000000
  gaussian 2 1 0.40200000
  gaussian 2 1 0.14500000
  gaussian 3 1 0.88200000
  gaussian 3 1 0.31100000
  gaussian 4 1 0.67300000
  
  ################################################################################
  #
  #  FHI-aims code project
  #  VB, Fritz-Haber Institut, 2007
  #
  #  Suggested "safe" defaults for N atom (to be pasted into control.in file)
  #
  ################################################################################
    species        N
  #     global species definitions
      nucleus             7
      mass                14.0067
  #
      l_hartree           8
  #
      cut_pot             4.0  2.0  1.0
      basis_dep_cutoff    0.d0
  #
      radial_base         35 7.0
      radial_multiplier   2
      angular_grids       specified
        division   0.3806  110
        division   0.5126  194
        division   0.5309  302
        division   0.7632  434
  #      division   0.7874  770
  #      division   3.0496  974
  #      outer_grid  974
        outer_grid  590
  ################################################################################
  #
  #  Definition of "minimal" basis
  #
  ################################################################################
  #     valence basis states
      valence      2  s   2.
      valence      2  p   3.
  #     ion occupancy
      ion_occ      2  s   1.
      ion_occ      2  p   2.
  
  
              # The default minimal basis should not be included
              include_min_basis .false.
              # Use spherical functions?
              pure_gauss .true.
              # N def2-QZVP
  gaussian 0 8
  90726.8892100              0.39257887368E-04
  13590.5288010              0.30513316455E-03
   3092.9883781              0.16000560446E-02
    875.99876362             0.66982937306E-02
    285.74469982             0.23690078765E-01
    103.11913417             0.71455405268E-01
     40.128556777            0.17632774876
     16.528095704            0.32677592815
  gaussian 0 2
     69.390960983            0.80052094386E-01
     20.428200596            0.78268063538
  gaussian 0 1 7.1292587972
  gaussian 0 1 3.1324304893
  gaussian 0 1 0.98755778723
  gaussian 0 1 0.38765721307
  gaussian 0 1 0.14909883075
  gaussian 1 5
    150.05742670            -0.86216165986E-03
     35.491599483           -0.68571273236E-02
     11.247864223           -0.31795688855E-01
      4.0900305195          -0.10537396822
      1.6220573146          -0.24519708041
  gaussian 1 1 0.66442261530
  gaussian 1 1 0.27099770070
  gaussian 1 1 0.10688749984
  gaussian 2 1 2.83700000
  gaussian 2 1 0.96800000
  gaussian 2 1 0.33500000
  gaussian 3 1 2.02700000
  gaussian 3 1 0.68500000
  gaussian 4 1 1.42700000
  
  
  
  -----------------------------------------------------------------------
  Completed first pass over input file control.in .
  -----------------------------------------------------------------------
  
  
  -----------------------------------------------------------------------
  Parsing geometry.in (first pass over file, find array dimensions only).
  The contents of geometry.in will be repeated verbatim below
  unless switched off by setting 'verbatim_writeout .false.' .
  in the first line of geometry.in .
  -----------------------------------------------------------------------
  
  atom 0.0000 0.0000 0.0000 B
  atom 0.0000 0.0000 1.281  N
  
  
  -----------------------------------------------------------------------
  Completed first pass over input file geometry.in .
  -----------------------------------------------------------------------
  

  Basic array size parameters:
  | Number of species                 :        2
  | Number of atoms                   :        2
  | Max. basis fn. angular momentum   :        4
  | Max. atomic/ionic basis occupied n:        2
  | Max. number of basis fn. types    :        1
  | Max. radial fns per species/type  :       24
  | Max. logarithmic grid size        :     1290
  | Max. radial integration grid size :       71
  | Max. angular integration grid size:      590
  | Max. angular grid division number :        8
  | Radial grid for Hartree potential :     1290
  | Number of spin channels           :        1

------------------------------------------------------------
          Reading file control.in.
------------------------------------------------------------
  XC: Using hybrid-PBE0 functionals.
  GW quasiparticle calculation of excited states will be started after the DFT/HF calculation.
  hybrid_xc_coeff: Mixing coefficient for hybrid-functional exact exchange modified to         0.25000000 .
  * WARNING: This change modifies the chosen exchange-correlation functional (keyword 'xc')
  * from its literature definition. Be sure to NEVER include such a line in any default control.in files!
  Spin treatment: No spin polarisation.
  Using Pade approximation for analytical continuation.
  Number of fitting parameters for analytical continuation :    128
  Number of frequency points used for the self-energy calculation:    600
  Contour deformation in GW for the levels:      1     to      17
  Broadening parameter eta:       0.004000
  Lower limit of the eigenstates for the self-energy correction :      1
  Upper limit of the eigenstates for the self-energy correction :    500
  Non-relativistic treatment of kinetic energy.
  override_relativity: Explicitly overriding any built-in relativity checks.
  If you use this flag, you should really know what you are doing.
  Partition function in integrals calculations: rho / r^2
  Spectral function will be calculated from:   -20.000   to        0.000  eV
  Occupation type: Gaussian broadening, width =   0.100000E-05 eV.
  Using pulay charge density mixing.
  Pulay mixing - number of memorized iterations:   10
  Charge density mixing - mixing parameter:     0.2000
  Convergence accuracy of self-consistent charge density:  0.1000E-04
  Convergence accuracy of sum of eigenvalues:  0.1000E-04
  Convergence accuracy of total energy:  0.1000E-04
  Maximum number of s.-c. iterations  :   400
  Threshold for auxiliary basis singularities:  0.1000E-04
  Kohn-Sham eigenvalues and eigenfunctions calculated by LAPACK via ELSI.
  Number of empty states per atom:    25000
  override_illconditioning: Explicitly overriding any built-in checks for an ill-conditioned overlap matrix.
  *** WARNING: If you use this flag, you should really know what you are doing.
  *** DO NOT keep this flag set by default in all your control.in files.

  Reading configuration options for species B                   .
  | Found nuclear charge :   5.0000
  | Found atomic mass :    10.811000000000000      amu
  | Found l_max for Hartree potential  :   8
  | Found cutoff potl. onset [A], width [A], scale factor :    4.00000    2.00000    1.00000
  | Threshold for basis-dependent cutoff potential is   0.000000E+00
  | Found data for basic radial integration grid :    32 points, outermost radius =    7.000 A
  | Found multiplier for basic radial grid :   2
  | Found angular grid specification: user-specified.
  | Specified grid contains     5 separate shells.
  | Check grid settings after all constraints further below.
  | Found free-atom valence shell :  2 s   2.000
  | Found free-atom valence shell :  2 p   1.000
  | No ionic wave fns used. Skipping ion_occ.
  | Found request to include minimal basis fns. :     F
  | Found request to include pure gaussian fns. :     T
  | Found contracted cartesian Gaussian basis function :  L = 0 ,   8 elementary Gaussians:
  |   alpha = 0.464477E+05 weight = 0.383887E-04
  |   alpha = 0.695769E+04 weight = 0.298368E-03
  |   alpha = 0.158344E+04 weight = 0.156455E-02
  |   alpha = 0.448466E+03 weight = 0.654768E-02
  |   alpha = 0.146286E+03 weight = 0.231390E-01
  |   alpha = 0.527844E+02 weight = 0.696158E-01
  |   alpha = 0.205194E+02 weight = 0.171196E+00
  |   alpha = 0.841857E+01 weight = 0.319132E+00
  |   In terms of angular momentum, this radial function adds: 
  |     1 s-type basis function
  | Found contracted cartesian Gaussian basis function :  L = 0 ,   2 elementary Gaussians:
  |   alpha = 0.365100E+02 weight = 0.789906E-01
  |   alpha = 0.105419E+02 weight = 0.789264E+00
  |   In terms of angular momentum, this radial function adds: 
  |     1 s-type basis function
  | Found primitive cartesian Gaussian basis function :  0 0.360041E+01
  |   In terms of angular momentum, this radial function adds: 
  |     1 s-type basis function
  | Found primitive cartesian Gaussian basis function :  0 0.156170E+01
  |   In terms of angular momentum, this radial function adds: 
  |     1 s-type basis function
  | Found primitive cartesian Gaussian basis function :  0 0.449974E+00
  |   In terms of angular momentum, this radial function adds: 
  |     1 s-type basis function
  | Found primitive cartesian Gaussian basis function :  0 0.180752E+00
  |   In terms of angular momentum, this radial function adds: 
  |     1 s-type basis function
  | Found primitive cartesian Gaussian basis function :  0 0.715967E-01
  |   In terms of angular momentum, this radial function adds: 
  |     1 s-type basis function
  | Found contracted cartesian Gaussian basis function :  L = 1 ,   5 elementary Gaussians:
  |   alpha = 0.722405E+02 weight = 0.865392E-03
  |   alpha = 0.168077E+02 weight = 0.687621E-02
  |   alpha = 0.522594E+01 weight = 0.309767E-01
  |   alpha = 0.185084E+01 weight = 0.104324E+00
  |   alpha = 0.722068E+00 weight = 0.261641E+00
  |   In terms of angular momentum, this radial function adds: 
  |     3 p-type basis functions
  | Found primitive cartesian Gaussian basis function :  1 0.294910E+00
  |   In terms of angular momentum, this radial function adds: 
  |     3 p-type basis functions
  | Found primitive cartesian Gaussian basis function :  1 0.122011E+00
  |   In terms of angular momentum, this radial function adds: 
  |     3 p-type basis functions
  | Found primitive cartesian Gaussian basis function :  1 0.498654E-01
  |   In terms of angular momentum, this radial function adds: 
  |     3 p-type basis functions
  | Found primitive cartesian Gaussian basis function :  2 0.111000E+01
  |   In terms of angular momentum, this radial function adds: 
  |     5 d-type basis functions
  | Found primitive cartesian Gaussian basis function :  2 0.402000E+00
  |   In terms of angular momentum, this radial function adds: 
  |     5 d-type basis functions
  | Found primitive cartesian Gaussian basis function :  2 0.145000E+00
  |   In terms of angular momentum, this radial function adds: 
  |     5 d-type basis functions
  | Found primitive cartesian Gaussian basis function :  3 0.882000E+00
  |   In terms of angular momentum, this radial function adds: 
  |     7 f-type basis functions
  | Found primitive cartesian Gaussian basis function :  3 0.311000E+00
  |   In terms of angular momentum, this radial function adds: 
  |     7 f-type basis functions
  | Found primitive cartesian Gaussian basis function :  4 0.673000E+00
  |   In terms of angular momentum, this radial function adds: 
  |     9 g-type basis functions
  Species B                   : Missing cutoff potential type.
  Defaulting to exp(1/x)/(1-x)^2 type cutoff potential.
  Species B : No 'logarithmic' tag. Using default grid for free atom:
  | Default logarithmic grid data [bohr] : 0.1000E-03 0.1000E+03 0.1012E+01
  Species B : On-site basis accuracy parameter (for Gram-Schmidt orthonormalisation) not specified.
  Using default value basis_acc =  0.1000000E-03.
  Species B                   : Using default innermost maximum threshold i_radial=  2 for radial functions.
  Species B                   : Default cutoff onset for free atom density etc. is infinite
  since the product basis is used (hybrid functionals, Hartree-Fock, GW etc.).
  Species B                   : Basic radial grid will be enhanced according to radial_multiplier =   2, to contain    65 grid points.

  Reading configuration options for species N                   .
  | Found nuclear charge :   7.0000
  | Found atomic mass :    14.006700000000000      amu
  | Found l_max for Hartree potential  :   8
  | Found cutoff potl. onset [A], width [A], scale factor :    4.00000    2.00000    1.00000
  | Threshold for basis-dependent cutoff potential is   0.000000E+00
  | Found data for basic radial integration grid :    35 points, outermost radius =    7.000 A
  | Found multiplier for basic radial grid :   2
  | Found angular grid specification: user-specified.
  | Specified grid contains     5 separate shells.
  | Check grid settings after all constraints further below.
  | Found free-atom valence shell :  2 s   2.000
  | Found free-atom valence shell :  2 p   3.000
  | No ionic wave fns used. Skipping ion_occ.
  | No ionic wave fns used. Skipping ion_occ.
  | Found request to include minimal basis fns. :     F
  | Found request to include pure gaussian fns. :     T
  | Found contracted cartesian Gaussian basis function :  L = 0 ,   8 elementary Gaussians:
  |   alpha = 0.907269E+05 weight = 0.392579E-04
  |   alpha = 0.135905E+05 weight = 0.305133E-03
  |   alpha = 0.309299E+04 weight = 0.160006E-02
  |   alpha = 0.875999E+03 weight = 0.669829E-02
  |   alpha = 0.285745E+03 weight = 0.236901E-01
  |   alpha = 0.103119E+03 weight = 0.714554E-01
  |   alpha = 0.401286E+02 weight = 0.176328E+00
  |   alpha = 0.165281E+02 weight = 0.326776E+00
  |   In terms of angular momentum, this radial function adds: 
  |     1 s-type basis function
  | Found contracted cartesian Gaussian basis function :  L = 0 ,   2 elementary Gaussians:
  |   alpha = 0.693910E+02 weight = 0.800521E-01
  |   alpha = 0.204282E+02 weight = 0.782681E+00
  |   In terms of angular momentum, this radial function adds: 
  |     1 s-type basis function
  | Found primitive cartesian Gaussian basis function :  0 0.712926E+01
  |   In terms of angular momentum, this radial function adds: 
  |     1 s-type basis function
  | Found primitive cartesian Gaussian basis function :  0 0.313243E+01
  |   In terms of angular momentum, this radial function adds: 
  |     1 s-type basis function
  | Found primitive cartesian Gaussian basis function :  0 0.987558E+00
  |   In terms of angular momentum, this radial function adds: 
  |     1 s-type basis function
  | Found primitive cartesian Gaussian basis function :  0 0.387657E+00
  |   In terms of angular momentum, this radial function adds: 
  |     1 s-type basis function
  | Found primitive cartesian Gaussian basis function :  0 0.149099E+00
  |   In terms of angular momentum, this radial function adds: 
  |     1 s-type basis function
  | Found contracted cartesian Gaussian basis function :  L = 1 ,   5 elementary Gaussians:
  |   alpha = 0.150057E+03 weight = -.862162E-03
  |   alpha = 0.354916E+02 weight = -.685713E-02
  |   alpha = 0.112479E+02 weight = -.317957E-01
  |   alpha = 0.409003E+01 weight = -.105374E+00
  |   alpha = 0.162206E+01 weight = -.245197E+00
  |   In terms of angular momentum, this radial function adds: 
  |     3 p-type basis functions
  | Found primitive cartesian Gaussian basis function :  1 0.664423E+00
  |   In terms of angular momentum, this radial function adds: 
  |     3 p-type basis functions
  | Found primitive cartesian Gaussian basis function :  1 0.270998E+00
  |   In terms of angular momentum, this radial function adds: 
  |     3 p-type basis functions
  | Found primitive cartesian Gaussian basis function :  1 0.106887E+00
  |   In terms of angular momentum, this radial function adds: 
  |     3 p-type basis functions
  | Found primitive cartesian Gaussian basis function :  2 0.283700E+01
  |   In terms of angular momentum, this radial function adds: 
  |     5 d-type basis functions
  | Found primitive cartesian Gaussian basis function :  2 0.968000E+00
  |   In terms of angular momentum, this radial function adds: 
  |     5 d-type basis functions
  | Found primitive cartesian Gaussian basis function :  2 0.335000E+00
  |   In terms of angular momentum, this radial function adds: 
  |     5 d-type basis functions
  | Found primitive cartesian Gaussian basis function :  3 0.202700E+01
  |   In terms of angular momentum, this radial function adds: 
  |     7 f-type basis functions
  | Found primitive cartesian Gaussian basis function :  3 0.685000E+00
  |   In terms of angular momentum, this radial function adds: 
  |     7 f-type basis functions
  | Found primitive cartesian Gaussian basis function :  4 0.142700E+01
  |   In terms of angular momentum, this radial function adds: 
  |     9 g-type basis functions
  Species N                   : Missing cutoff potential type.
  Defaulting to exp(1/x)/(1-x)^2 type cutoff potential.
  Species N : No 'logarithmic' tag. Using default grid for free atom:
  | Default logarithmic grid data [bohr] : 0.1000E-03 0.1000E+03 0.1012E+01
  Species N : On-site basis accuracy parameter (for Gram-Schmidt orthonormalisation) not specified.
  Using default value basis_acc =  0.1000000E-03.
  Species N                   : Using default innermost maximum threshold i_radial=  2 for radial functions.
  Species N                   : Default cutoff onset for free atom density etc. is infinite
  since the product basis is used (hybrid functionals, Hartree-Fock, GW etc.).
  Species N                   : Basic radial grid will be enhanced according to radial_multiplier =   2, to contain    71 grid points.

  Finished reading input file 'control.in'.

------------------------------------------------------------


------------------------------------------------------------
          Reading geometry description geometry.in.
------------------------------------------------------------
  | The smallest distance between any two atoms is         1.28100000 AA.
  | The first atom of this pair is atom number                      1 .
  | The second atom of this pair is atom number                     2 .
  Input structure read successfully.
  The structure contains        2 atoms,  and a total of         12.000 electrons.

  Input geometry:
  | No unit cell requested.
  | Atomic structure:
  |       Atom                x [A]            y [A]            z [A]
  |    1: Species B             0.00000000        0.00000000        0.00000000
  |    2: Species N             0.00000000        0.00000000        1.28100000


  Finished reading input file 'geometry.in'.



  Consistency checks for stacksize environment parameter are next.

  | Maximum stacksize for task 0: unlimited
  | Maximum stacksize for task 1: unlimited
  | Maximum stacksize for task 2: unlimited
  | Maximum stacksize for task 3: unlimited
  | Maximum stacksize for task 4: unlimited
  | Maximum stacksize for task 5: unlimited
  | Maximum stacksize for task 6: unlimited
  | Maximum stacksize for task 7: unlimited
  | Maximum stacksize for task 8: unlimited
  | Maximum stacksize for task 9: unlimited
  | Maximum stacksize for task 10: unlimited
  | Maximum stacksize for task 11: unlimited
  | Maximum stacksize for task 12: unlimited
  | Maximum stacksize for task 13: unlimited
  | Maximum stacksize for task 14: unlimited
  | Maximum stacksize for task 15: unlimited
  | Maximum stacksize for task 16: unlimited
  | Maximum stacksize for task 17: unlimited
  | Maximum stacksize for task 18: unlimited
  | Maximum stacksize for task 19: unlimited
  | Maximum stacksize for task 20: unlimited
  | Maximum stacksize for task 21: unlimited
  | Maximum stacksize for task 22: unlimited
  | Maximum stacksize for task 23: unlimited
  | Maximum stacksize for task 24: unlimited
  | Maximum stacksize for task 25: unlimited
  | Maximum stacksize for task 26: unlimited
  | Maximum stacksize for task 27: unlimited
  | Maximum stacksize for task 28: unlimited
  | Maximum stacksize for task 29: unlimited
  | Maximum stacksize for task 30: unlimited
  | Maximum stacksize for task 31: unlimited
  | Maximum stacksize for task 32: unlimited
  | Maximum stacksize for task 33: unlimited
  | Maximum stacksize for task 34: unlimited
  | Maximum stacksize for task 35: unlimited
  | Maximum stacksize for task 36: unlimited
  | Maximum stacksize for task 37: unlimited
  | Maximum stacksize for task 38: unlimited
  | Maximum stacksize for task 39: unlimited
  | Maximum stacksize for task 40: unlimited
  | Maximum stacksize for task 41: unlimited
  | Maximum stacksize for task 42: unlimited
  | Maximum stacksize for task 43: unlimited
  | Maximum stacksize for task 44: unlimited
  | Maximum stacksize for task 45: unlimited
  | Maximum stacksize for task 46: unlimited
  | Maximum stacksize for task 47: unlimited
  | Maximum stacksize for task 48: unlimited
  | Maximum stacksize for task 49: unlimited
  | Maximum stacksize for task 50: unlimited
  | Maximum stacksize for task 51: unlimited
  | Maximum stacksize for task 52: unlimited
  | Maximum stacksize for task 53: unlimited
  | Maximum stacksize for task 54: unlimited
  | Maximum stacksize for task 55: unlimited
  | Maximum stacksize for task 56: unlimited
  | Maximum stacksize for task 57: unlimited
  | Maximum stacksize for task 58: unlimited
  | Maximum stacksize for task 59: unlimited
  | Maximum stacksize for task 60: unlimited
  | Maximum stacksize for task 61: unlimited
  | Maximum stacksize for task 62: unlimited
  | Maximum stacksize for task 63: unlimited
  | Maximum stacksize for task 64: unlimited
  | Maximum stacksize for task 65: unlimited
  | Maximum stacksize for task 66: unlimited
  | Maximum stacksize for task 67: unlimited
  | Maximum stacksize for task 68: unlimited
  | Maximum stacksize for task 69: unlimited
  | Maximum stacksize for task 70: unlimited
  | Maximum stacksize for task 71: unlimited
  | Maximum stacksize for task 72: unlimited
  | Maximum stacksize for task 73: unlimited
  | Maximum stacksize for task 74: unlimited
  | Maximum stacksize for task 75: unlimited
  | Maximum stacksize for task 76: unlimited
  | Maximum stacksize for task 77: unlimited
  | Maximum stacksize for task 78: unlimited
  | Maximum stacksize for task 79: unlimited
  | Maximum stacksize for task 80: unlimited
  | Maximum stacksize for task 81: unlimited
  | Maximum stacksize for task 82: unlimited
  | Maximum stacksize for task 83: unlimited
  | Maximum stacksize for task 84: unlimited
  | Maximum stacksize for task 85: unlimited
  | Maximum stacksize for task 86: unlimited
  | Maximum stacksize for task 87: unlimited
  | Maximum stacksize for task 88: unlimited
  | Maximum stacksize for task 89: unlimited
  | Maximum stacksize for task 90: unlimited
  | Maximum stacksize for task 91: unlimited
  | Maximum stacksize for task 92: unlimited
  | Maximum stacksize for task 93: unlimited
  | Maximum stacksize for task 94: unlimited
  | Maximum stacksize for task 95: unlimited
  | Maximum stacksize for task 96: unlimited
  | Maximum stacksize for task 97: unlimited
  | Maximum stacksize for task 98: unlimited
  | Maximum stacksize for task 99: unlimited
  | Maximum stacksize for task 100: unlimited
  | Maximum stacksize for task 101: unlimited
  | Maximum stacksize for task 102: unlimited
  | Maximum stacksize for task 103: unlimited
  | Maximum stacksize for task 104: unlimited
  | Maximum stacksize for task 105: unlimited
  | Maximum stacksize for task 106: unlimited
  | Maximum stacksize for task 107: unlimited
  | Maximum stacksize for task 108: unlimited
  | Maximum stacksize for task 109: unlimited
  | Maximum stacksize for task 110: unlimited
  | Maximum stacksize for task 111: unlimited
  | Maximum stacksize for task 112: unlimited
  | Maximum stacksize for task 113: unlimited
  | Maximum stacksize for task 114: unlimited
  | Maximum stacksize for task 115: unlimited
  | Maximum stacksize for task 116: unlimited
  | Maximum stacksize for task 117: unlimited
  | Maximum stacksize for task 118: unlimited
  | Maximum stacksize for task 119: unlimited
  | Maximum stacksize for task 120: unlimited
  | Maximum stacksize for task 121: unlimited
  | Maximum stacksize for task 122: unlimited
  | Maximum stacksize for task 123: unlimited
  | Maximum stacksize for task 124: unlimited
  | Maximum stacksize for task 125: unlimited
  | Maximum stacksize for task 126: unlimited
  | Maximum stacksize for task 127: unlimited
  | Current stacksize for task 0: unlimited
  | Current stacksize for task 1: unlimited
  | Current stacksize for task 2: unlimited
  | Current stacksize for task 3: unlimited
  | Current stacksize for task 4: unlimited
  | Current stacksize for task 5: unlimited
  | Current stacksize for task 6: unlimited
  | Current stacksize for task 7: unlimited
  | Current stacksize for task 8: unlimited
  | Current stacksize for task 9: unlimited
  | Current stacksize for task 10: unlimited
  | Current stacksize for task 11: unlimited
  | Current stacksize for task 12: unlimited
  | Current stacksize for task 13: unlimited
  | Current stacksize for task 14: unlimited
  | Current stacksize for task 15: unlimited
  | Current stacksize for task 16: unlimited
  | Current stacksize for task 17: unlimited
  | Current stacksize for task 18: unlimited
  | Current stacksize for task 19: unlimited
  | Current stacksize for task 20: unlimited
  | Current stacksize for task 21: unlimited
  | Current stacksize for task 22: unlimited
  | Current stacksize for task 23: unlimited
  | Current stacksize for task 24: unlimited
  | Current stacksize for task 25: unlimited
  | Current stacksize for task 26: unlimited
  | Current stacksize for task 27: unlimited
  | Current stacksize for task 28: unlimited
  | Current stacksize for task 29: unlimited
  | Current stacksize for task 30: unlimited
  | Current stacksize for task 31: unlimited
  | Current stacksize for task 32: unlimited
  | Current stacksize for task 33: unlimited
  | Current stacksize for task 34: unlimited
  | Current stacksize for task 35: unlimited
  | Current stacksize for task 36: unlimited
  | Current stacksize for task 37: unlimited
  | Current stacksize for task 38: unlimited
  | Current stacksize for task 39: unlimited
  | Current stacksize for task 40: unlimited
  | Current stacksize for task 41: unlimited
  | Current stacksize for task 42: unlimited
  | Current stacksize for task 43: unlimited
  | Current stacksize for task 44: unlimited
  | Current stacksize for task 45: unlimited
  | Current stacksize for task 46: unlimited
  | Current stacksize for task 47: unlimited
  | Current stacksize for task 48: unlimited
  | Current stacksize for task 49: unlimited
  | Current stacksize for task 50: unlimited
  | Current stacksize for task 51: unlimited
  | Current stacksize for task 52: unlimited
  | Current stacksize for task 53: unlimited
  | Current stacksize for task 54: unlimited
  | Current stacksize for task 55: unlimited
  | Current stacksize for task 56: unlimited
  | Current stacksize for task 57: unlimited
  | Current stacksize for task 58: unlimited
  | Current stacksize for task 59: unlimited
  | Current stacksize for task 60: unlimited
  | Current stacksize for task 61: unlimited
  | Current stacksize for task 62: unlimited
  | Current stacksize for task 63: unlimited
  | Current stacksize for task 64: unlimited
  | Current stacksize for task 65: unlimited
  | Current stacksize for task 66: unlimited
  | Current stacksize for task 67: unlimited
  | Current stacksize for task 68: unlimited
  | Current stacksize for task 69: unlimited
  | Current stacksize for task 70: unlimited
  | Current stacksize for task 71: unlimited
  | Current stacksize for task 72: unlimited
  | Current stacksize for task 73: unlimited
  | Current stacksize for task 74: unlimited
  | Current stacksize for task 75: unlimited
  | Current stacksize for task 76: unlimited
  | Current stacksize for task 77: unlimited
  | Current stacksize for task 78: unlimited
  | Current stacksize for task 79: unlimited
  | Current stacksize for task 80: unlimited
  | Current stacksize for task 81: unlimited
  | Current stacksize for task 82: unlimited
  | Current stacksize for task 83: unlimited
  | Current stacksize for task 84: unlimited
  | Current stacksize for task 85: unlimited
  | Current stacksize for task 86: unlimited
  | Current stacksize for task 87: unlimited
  | Current stacksize for task 88: unlimited
  | Current stacksize for task 89: unlimited
  | Current stacksize for task 90: unlimited
  | Current stacksize for task 91: unlimited
  | Current stacksize for task 92: unlimited
  | Current stacksize for task 93: unlimited
  | Current stacksize for task 94: unlimited
  | Current stacksize for task 95: unlimited
  | Current stacksize for task 96: unlimited
  | Current stacksize for task 97: unlimited
  | Current stacksize for task 98: unlimited
  | Current stacksize for task 99: unlimited
  | Current stacksize for task 100: unlimited
  | Current stacksize for task 101: unlimited
  | Current stacksize for task 102: unlimited
  | Current stacksize for task 103: unlimited
  | Current stacksize for task 104: unlimited
  | Current stacksize for task 105: unlimited
  | Current stacksize for task 106: unlimited
  | Current stacksize for task 107: unlimited
  | Current stacksize for task 108: unlimited
  | Current stacksize for task 109: unlimited
  | Current stacksize for task 110: unlimited
  | Current stacksize for task 111: unlimited
  | Current stacksize for task 112: unlimited
  | Current stacksize for task 113: unlimited
  | Current stacksize for task 114: unlimited
  | Current stacksize for task 115: unlimited
  | Current stacksize for task 116: unlimited
  | Current stacksize for task 117: unlimited
  | Current stacksize for task 118: unlimited
  | Current stacksize for task 119: unlimited
  | Current stacksize for task 120: unlimited
  | Current stacksize for task 121: unlimited
  | Current stacksize for task 122: unlimited
  | Current stacksize for task 123: unlimited
  | Current stacksize for task 124: unlimited
  | Current stacksize for task 125: unlimited
  | Current stacksize for task 126: unlimited
  | Current stacksize for task 127: unlimited

  Consistency checks for the contents of control.in are next.

  MPI_IN_PLACE appears to work with this MPI implementation.
  | Keeping use_mpi_in_place .true. (see manual).
  Explicit treatment of the Coulomb operator is needed, but the RI method is not specified.
  Coulomb operator: Defaulting to 'RI-V' resolution of identity - RI_type = V
  Species B: Using default value for prodbas_acc =   1.000000E-02.
  Species B: Using default value max_l_prodbas =     5.
  Species N: Using default value for prodbas_acc =   1.000000E-02.
  Species N: Using default value max_l_prodbas =     5.
 * Species B: Specified min. number of angular integration points is   110
 * The angular momenta for this species require   194 for RI_type 'V'. Increasing angular_min to   194.
 * Species B: Grid shell     1 contains only   110 angular integration points.
 * Increasing to angular_min =   194 integration points.
 * This change is related to the three-center integrals used in RI_method 'V'.
 * Species N: Specified min. number of angular integration points is   110
 * The angular momenta for this species require   194 for RI_type 'V'. Increasing angular_min to   194.
 * Species N: Grid shell     1 contains only   110 angular integration points.
 * Increasing to angular_min =   194 integration points.
 * This change is related to the three-center integrals used in RI_method 'V'.
  Target number of points in a grid batch is not set. Defaulting to  100
  Method for grid partitioning is not set. Defaulting to parallel hash+maxmin partitioning.
  Batch size limit is not set. Defaulting to    200
  By default, will store active basis functions for each batch.
  If in need of memory, prune_basis_once .false. can be used to disable this option.
  communication_type for Hartree potential was not specified.
  Defaulting to calc_hartree .
  Pulay mixer: Number of initial linear mixing iterations not set.
  Defaulting to    0 iterations.
  Work space size for distributed Hartree potential not set.
  Defaulting to   0.200000E+03 MB.
  Algorithm-dependent basis array size parameters:
  | n_max_pulay                         :       10
  Presetting      1001 iterations before the initial mixing cycle
  is restarted anyway using the sc_init_iter criterion / keyword.
  Presetting a factor      1.000 between actual scf density residual
  and density convergence criterion sc_accuracy_rho below which sc_init_iter
  takes no effect.
  Calculation of forces was not defined in control.in. No forces will be calculated.
  Geometry relaxation not requested: no relaxation will be performed.
  No accuracy limit for integral partition fn. given. Defaulting to  0.1000E-14.
  No threshold value for u(r) in integrations given. Defaulting to  0.1000E-05.
  No accuracy for occupation numbers given. Defaulting to  0.1000E-12.
  No threshold value for occupation numbers given. Defaulting to  0.0000E+00.
  No accuracy for fermi level given. Defaulting to  0.1000E-19.
  Maximum # of iterations to find E_F not set. Defaulting to  200.
  Will not use alltoall communication since running on < 1024 CPUs.
  Threshold for basis singularities not set.
  Default threshold for basis singularities:  0.1000E-04
  Partitioning for Hartree potential was not defined. Using partition_type for integrals.
  | Reporting present value of keyword multip_moments_threshold  :       0.10000000E-09
  | This value may affect high angular momentum components of the Hartree potential in periodic systems.
  * Doing correlated calculations, so all empty single-particle states will be included.
  No q(lm)/r^(l+1) cutoff set for long-range Hartree potential.
  | Using default value of  0.100000E-09 .
  | Verify using the multipole_threshold keyword.
  Defaulting to new monopole extrapolation.
  Density update method: density matrix based density update selected.
  Charge integration errors on the 3D integration grid will be compensated
  by explicit normalization and distribution of residual charges.
  Use the "compensate_multipole_errors" flag to change this behaviour.
  Default to 1D ("use_logsbt") integrations for auxiliary 2-center integrals.
  Default onset of logarithmic r-grid for SBT is -38.000000000000
  Default onset of logarithmic k-grid for SBT is -25.000000000000
  Default range of logarithmic r- and k-grid for SBT is  45.000000000000
  Default number of logarithmic r- and k-grid for SBT is   4096
  *** Contour Deformation: Only support 2D parallization. Switching.
  Set 'collect_eigenvectors' to be '.true.' for GW/RPA/MP2, SCREX/COHSEX cluster calculations
  Set 'collect_eigenvectors' to be '.true.' for qpe_calc (quasiparticle energy).
  Set 'collect_eigenvectors' to be '.true.' for KS_method lapack_fast and serial.

  Consistency checks for the contents of geometry.in are next.

  Number of empty states per atom not set in control.in .
  | Since you are using a method that relies on the unoccupied spectrum
  | (MP2,GW,RPA et al.), will use the full Hamiltonian size (see below)
  | as the max. possible number of states (occupied plus empty).

  Structure-dependent array size parameters: 
  | Maximum number of distinct radial functions  :       34
  | Maximum number of basis functions            :      114
  | Number of Kohn-Sham states (occupied + empty):      114
------------------------------------------------------------

------------------------------------------------------------
          Preparing all fixed parts of the calculation.
------------------------------------------------------------
  Determining machine precision:
     2.2250738585072014E-308
  Setting up grids for atomic and cluster calculations.

  Creating wave function, potential, and density for free atoms.
  Runtime choices for atomic solver:
  | atomic solver xc        : PBE
  | compute density gradient: 1
  | compute kinetic density : F

  Species: B

  List of occupied orbitals and eigenvalues:
    n    l              occ      energy [Ha]    energy [eV]
    1    0           2.0000        -6.634628      -180.5374
    2    0           2.0000        -0.346865        -9.4387
    2    1           1.0000        -0.132618        -3.6087


  Species: N

  List of occupied orbitals and eigenvalues:
    n    l              occ      energy [Ha]    energy [eV]
    1    0           2.0000       -14.129248      -384.4764
    2    0           2.0000        -0.681982       -18.5577
    2    1           3.0000        -0.260725        -7.0947


  Adding cutoff potential to free-atom effective potential.
  Creating fixed part of basis set: Ionic, confined, hydrogenic.

  B                    Gaussian:

  List of cartesian Gaussian basis orbitals: 
    L    l
    0    0
    0    0
    0    0
    0    0
    0    0
    0    0
    0    0
    1    1
    1    1
    1    1
    1    1
    2    2
    2    2
    2    2
    3    3
    3    3
    4    4


  N                    Gaussian:

  List of cartesian Gaussian basis orbitals: 
    L    l
    0    0
    0    0
    0    0
    0    0
    0    0
    0    0
    0    0
    1    1
    1    1
    1    1
    1    1
    2    2
    2    2
    2    2
    3    3
    3    3
    4    4

  Creating atomic-like basis functions for current effective potential.
  Assembling full basis from fixed parts.
  | Species B : gaussian orbital   0 s accepted.
  | Species B : gaussian orbital   0 s accepted.
  | Species B : gaussian orbital   0 s accepted.
  | Species B : gaussian orbital   0 s accepted.
  | Species B : gaussian orbital   0 s accepted.
  | Species B : gaussian orbital   0 s accepted.
  | Species B : gaussian orbital   0 s accepted.
  | Species B : gaussian orbital   1 p accepted.
  | Species B : gaussian orbital   1 p accepted.
  | Species B : gaussian orbital   1 p accepted.
  | Species B : gaussian orbital   1 p accepted.
  | Species B : gaussian orbital   2 d accepted.
  | Species B : gaussian orbital   2 d accepted.
  | Species B : gaussian orbital   2 d accepted.
  | Species B : gaussian orbital   3 f accepted.
  | Species B : gaussian orbital   3 f accepted.
  | Species B : gaussian orbital   4 g accepted.
  | Species N : gaussian orbital   0 s accepted.
  | Species N : gaussian orbital   0 s accepted.
  | Species N : gaussian orbital   0 s accepted.
  | Species N : gaussian orbital   0 s accepted.
  | Species N : gaussian orbital   0 s accepted.
  | Species N : gaussian orbital   0 s accepted.
  | Species N : gaussian orbital   0 s accepted.
  | Species N : gaussian orbital   1 p accepted.
  | Species N : gaussian orbital   1 p accepted.
  | Species N : gaussian orbital   1 p accepted.
  | Species N : gaussian orbital   1 p accepted.
  | Species N : gaussian orbital   2 d accepted.
  | Species N : gaussian orbital   2 d accepted.
  | Species N : gaussian orbital   2 d accepted.
  | Species N : gaussian orbital   3 f accepted.
  | Species N : gaussian orbital   3 f accepted.
  | Species N : gaussian orbital   4 g accepted.

  Basis size parameters after reduction:
  | Total number of radial functions:       34
  | Total number of basis functions :      114

  Per-task memory consumption for arrays in subroutine allocate_ext:
  |           8.425712MB.
  Testing on-site integration grid accuracy.
  |  Species  Function  <phi|h_atom|phi> (log., in eV)  <phi|h_atom|phi> (rad., in eV)
           1        1               -115.8372044508               -115.7008080115 ***
           1        2               2333.2037441388               2336.2569253454 ***
           1        3                360.4789780708                360.6235057758 ***
           1        4                364.5058421083                364.7105009424 ***
           1        5                140.3596595463                140.4258460277 ***
           1        6                 70.5084516718                 70.5354762940
           1        7                 33.2343234797                 33.2447901774
           1        8                  7.7038855397                  7.7038838973
           1        9                 22.2189676602                 22.2189671928
           1       10                 17.3166215746                 17.3166212985
           1       11                 10.2538731571                 10.2538731411
           1       12                 64.0617343121                 64.0617328887
           1       13                 45.0288456108                 45.0288440371
           1       14                 23.2495511452                 23.2495506038
           1       15                 81.5603861625                 81.5603859394
           1       16                 43.6375894934                 43.6375892366
           1       17                 84.0673700096                 84.0673686845
           2       18               -264.5432893548               -263.9874535444 ***
           2       19               4367.3376942285               4378.6605423972 ***
           2       20                767.2749457774                767.9763632697 ***
           2       21                745.8006287945                746.6455314919 ***
           2       22                319.1237821340                319.4236476998 ***
           2       23                156.3503127390                156.4694003719 ***
           2       24                 71.3421222579                 71.3866879929 ***
           2       25                 15.7260725604                 15.7260734300
           2       26                 51.6176422071                 51.6176426430
           2       27                 39.5162519506                 39.5162516000
           2       28                 22.2520683051                 22.2520679855
           2       29                164.9661756018                164.9661764630
           2       30                109.1162417096                109.1162398341
           2       31                 53.8279305948                 53.8279296251
           2       32                189.2678310708                189.2678301114
           2       33                 96.9312577942                 96.9312583994
           2       34                180.8261710897                180.8261701237
 * Note: Onsite integrals marked "***" above are less accurate than
 * onsite_accuracy_threshold =    0.03000 eV. Usually, this is harmless.
 * However, one integral did have a negative value. This integral could be important.
 * When in doubt, tighten the "radial" and/or "radial_multiplier" flags to check.

  Preparing densities etc. for the partition functions (integrals / Hartree potential).

  Preparations completed.
  max(cpu_time)          :      0.167 s.
  Wall clock time (cpu1) :      0.177 s.
------------------------------------------------------------

  Initializing index lists of integration centers etc. from given atomic structure:
  | Number of centers in hartree potential         :         2
  | Number of centers in hartree multipole         :         2
  | Number of centers in electron density summation:         2
  | Number of centers in basis integrals           :         2
  | Number of centers in integrals                 :         2
  | Number of centers in hamiltonian               :         2

------------------------------------------------------------
          Begin self-consistency loop: Initialization.

          Date     :  20240515, Time     :  123125.876
------------------------------------------------------------
  * Using 128 tasks for Scalapack Eigenvalue solver.
  Detailed listing of tasks and assigned k-points:
  (for non-periodic systems, the "k-point" denotes an internal label only)
   Task     0 k-point     1 on n2cn0392
   Task     1 k-point     1 on n2cn0392
   Task     2 k-point     1 on n2cn0392
   Task     3 k-point     1 on n2cn0392
   Task     4 k-point     1 on n2cn0392
   Task     5 k-point     1 on n2cn0392
   Task     6 k-point     1 on n2cn0392
   Task     7 k-point     1 on n2cn0392
   Task     8 k-point     1 on n2cn0392
   Task     9 k-point     1 on n2cn0392
   Task    10 k-point     1 on n2cn0392
   Task    11 k-point     1 on n2cn0392
   Task    12 k-point     1 on n2cn0392
   Task    13 k-point     1 on n2cn0392
   Task    14 k-point     1 on n2cn0392
   Task    15 k-point     1 on n2cn0392
   Task    16 k-point     1 on n2cn0392
   Task    17 k-point     1 on n2cn0392
   Task    18 k-point     1 on n2cn0392
   Task    19 k-point     1 on n2cn0392
   Task    20 k-point     1 on n2cn0392
   Task    21 k-point     1 on n2cn0392
   Task    22 k-point     1 on n2cn0392
   Task    23 k-point     1 on n2cn0392
   Task    24 k-point     1 on n2cn0392
   Task    25 k-point     1 on n2cn0392
   Task    26 k-point     1 on n2cn0392
   Task    27 k-point     1 on n2cn0392
   Task    28 k-point     1 on n2cn0392
   Task    29 k-point     1 on n2cn0392
   Task    30 k-point     1 on n2cn0392
   Task    31 k-point     1 on n2cn0392
   Task    32 k-point     1 on n2cn0392
   Task    33 k-point     1 on n2cn0392
   Task    34 k-point     1 on n2cn0392
   Task    35 k-point     1 on n2cn0392
   Task    36 k-point     1 on n2cn0392
   Task    37 k-point     1 on n2cn0392
   Task    38 k-point     1 on n2cn0392
   Task    39 k-point     1 on n2cn0392
   Task    40 k-point     1 on n2cn0392
   Task    41 k-point     1 on n2cn0392
   Task    42 k-point     1 on n2cn0392
   Task    43 k-point     1 on n2cn0392
   Task    44 k-point     1 on n2cn0392
   Task    45 k-point     1 on n2cn0392
   Task    46 k-point     1 on n2cn0392
   Task    47 k-point     1 on n2cn0392
   Task    48 k-point     1 on n2cn0392
   Task    49 k-point     1 on n2cn0392
   Task    50 k-point     1 on n2cn0392
   Task    51 k-point     1 on n2cn0392
   Task    52 k-point     1 on n2cn0392
   Task    53 k-point     1 on n2cn0392
   Task    54 k-point     1 on n2cn0392
   Task    55 k-point     1 on n2cn0392
   Task    56 k-point     1 on n2cn0392
   Task    57 k-point     1 on n2cn0392
   Task    58 k-point     1 on n2cn0392
   Task    59 k-point     1 on n2cn0392
   Task    60 k-point     1 on n2cn0392
   Task    61 k-point     1 on n2cn0392
   Task    62 k-point     1 on n2cn0392
   Task    63 k-point     1 on n2cn0392
   Task    64 k-point     1 on n2cn0392
   Task    65 k-point     1 on n2cn0392
   Task    66 k-point     1 on n2cn0392
   Task    67 k-point     1 on n2cn0392
   Task    68 k-point     1 on n2cn0392
   Task    69 k-point     1 on n2cn0392
   Task    70 k-point     1 on n2cn0392
   Task    71 k-point     1 on n2cn0392
   Task    72 k-point     1 on n2cn0392
   Task    73 k-point     1 on n2cn0392
   Task    74 k-point     1 on n2cn0392
   Task    75 k-point     1 on n2cn0392
   Task    76 k-point     1 on n2cn0392
   Task    77 k-point     1 on n2cn0392
   Task    78 k-point     1 on n2cn0392
   Task    79 k-point     1 on n2cn0392
   Task    80 k-point     1 on n2cn0392
   Task    81 k-point     1 on n2cn0392
   Task    82 k-point     1 on n2cn0392
   Task    83 k-point     1 on n2cn0392
   Task    84 k-point     1 on n2cn0392
   Task    85 k-point     1 on n2cn0392
   Task    86 k-point     1 on n2cn0392
   Task    87 k-point     1 on n2cn0392
   Task    88 k-point     1 on n2cn0392
   Task    89 k-point     1 on n2cn0392
   Task    90 k-point     1 on n2cn0392
   Task    91 k-point     1 on n2cn0392
   Task    92 k-point     1 on n2cn0392
   Task    93 k-point     1 on n2cn0392
   Task    94 k-point     1 on n2cn0392
   Task    95 k-point     1 on n2cn0392
   Task    96 k-point     1 on n2cn0392
   Task    97 k-point     1 on n2cn0392
   Task    98 k-point     1 on n2cn0392
   Task    99 k-point     1 on n2cn0392
   Task   100 k-point     1 on n2cn0392
   Task   101 k-point     1 on n2cn0392
   Task   102 k-point     1 on n2cn0392
   Task   103 k-point     1 on n2cn0392
   Task   104 k-point     1 on n2cn0392
   Task   105 k-point     1 on n2cn0392
   Task   106 k-point     1 on n2cn0392
   Task   107 k-point     1 on n2cn0392
   Task   108 k-point     1 on n2cn0392
   Task   109 k-point     1 on n2cn0392
   Task   110 k-point     1 on n2cn0392
   Task   111 k-point     1 on n2cn0392
   Task   112 k-point     1 on n2cn0392
   Task   113 k-point     1 on n2cn0392
   Task   114 k-point     1 on n2cn0392
   Task   115 k-point     1 on n2cn0392
   Task   116 k-point     1 on n2cn0392
   Task   117 k-point     1 on n2cn0392
   Task   118 k-point     1 on n2cn0392
   Task   119 k-point     1 on n2cn0392
   Task   120 k-point     1 on n2cn0392
   Task   121 k-point     1 on n2cn0392
   Task   122 k-point     1 on n2cn0392
   Task   123 k-point     1 on n2cn0392
   Task   124 k-point     1 on n2cn0392
   Task   125 k-point     1 on n2cn0392
   Task   126 k-point     1 on n2cn0392
   Task   127 k-point     1 on n2cn0392
  Tasks:   128 split into     16 X      8 BLACS grid
  Calculating block size based on n_basis =          114  max_nprow =           16  max_npcol =            8
  ScaLAPACK block size set to:            4
  Allocating        0.001 MB for ovlp
  Allocating        0.001 MB for ham
  Allocating        0.001 MB for eigenvec
  Required Scalapack workspace - INTEGER:          864  REAL:          1169
  Partitioning the integration grid into batches with parallel hashing+maxmin method.
  | Number of batches:      680
  | Maximal batch size:     186
  | Minimal batch size:       3
  | Average batch size:      80.306
  | Standard deviation of batch sizes:      29.253

  Integration load balanced across   128 MPI tasks.
  Work distribution over tasks is as follows:
  Task     0 has        444 integration points.
  Task     1 has        422 integration points.
  Task     2 has        442 integration points.
  Task     3 has        415 integration points.
  Task     4 has        405 integration points.
  Task     5 has        506 integration points.
  Task     6 has        424 integration points.
  Task     7 has        503 integration points.
  Task     8 has        489 integration points.
  Task     9 has        433 integration points.
  Task    10 has        411 integration points.
  Task    11 has        424 integration points.
  Task    12 has        408 integration points.
  Task    13 has        411 integration points.
  Task    14 has        408 integration points.
  Task    15 has        462 integration points.
  Task    16 has        404 integration points.
  Task    17 has        429 integration points.
  Task    18 has        439 integration points.
  Task    19 has        405 integration points.
  Task    20 has        404 integration points.
  Task    21 has        409 integration points.
  Task    22 has        413 integration points.
  Task    23 has        507 integration points.
  Task    24 has        416 integration points.
  Task    25 has        408 integration points.
  Task    26 has        427 integration points.
  Task    27 has        440 integration points.
  Task    28 has        412 integration points.
  Task    29 has        413 integration points.
  Task    30 has        404 integration points.
  Task    31 has        433 integration points.
  Task    32 has        413 integration points.
  Task    33 has        411 integration points.
  Task    34 has        415 integration points.
  Task    35 has        419 integration points.
  Task    36 has        420 integration points.
  Task    37 has        418 integration points.
  Task    38 has        418 integration points.
  Task    39 has        512 integration points.
  Task    40 has        413 integration points.
  Task    41 has        416 integration points.
  Task    42 has        404 integration points.
  Task    43 has        406 integration points.
  Task    44 has        404 integration points.
  Task    45 has        410 integration points.
  Task    46 has        412 integration points.
  Task    47 has        407 integration points.
  Task    48 has        406 integration points.
  Task    49 has        431 integration points.
  Task    50 has        427 integration points.
  Task    51 has        405 integration points.
  Task    52 has        435 integration points.
  Task    53 has        434 integration points.
  Task    54 has        443 integration points.
  Task    55 has        409 integration points.
  Task    56 has        425 integration points.
  Task    57 has        411 integration points.
  Task    58 has        438 integration points.
  Task    59 has        459 integration points.
  Task    60 has        409 integration points.
  Task    61 has        428 integration points.
  Task    62 has        409 integration points.
  Task    63 has        406 integration points.
  Task    64 has        406 integration points.
  Task    65 has        427 integration points.
  Task    66 has        445 integration points.
  Task    67 has        527 integration points.
  Task    68 has        405 integration points.
  Task    69 has        406 integration points.
  Task    70 has        412 integration points.
  Task    71 has        433 integration points.
  Task    72 has        447 integration points.
  Task    73 has        437 integration points.
  Task    74 has        423 integration points.
  Task    75 has        509 integration points.
  Task    76 has        413 integration points.
  Task    77 has        414 integration points.
  Task    78 has        408 integration points.
  Task    79 has        407 integration points.
  Task    80 has        504 integration points.
  Task    81 has        414 integration points.
  Task    82 has        408 integration points.
  Task    83 has        411 integration points.
  Task    84 has        405 integration points.
  Task    85 has        410 integration points.
  Task    86 has        408 integration points.
  Task    87 has        439 integration points.
  Task    88 has        405 integration points.
  Task    89 has        420 integration points.
  Task    90 has        408 integration points.
  Task    91 has        407 integration points.
  Task    92 has        508 integration points.
  Task    93 has        409 integration points.
  Task    94 has        411 integration points.
  Task    95 has        407 integration points.
  Task    96 has        508 integration points.
  Task    97 has        427 integration points.
  Task    98 has        405 integration points.
  Task    99 has        403 integration points.
  Task   100 has        406 integration points.
  Task   101 has        409 integration points.
  Task   102 has        412 integration points.
  Task   103 has        520 integration points.
  Task   104 has        412 integration points.
  Task   105 has        414 integration points.
  Task   106 has        412 integration points.
  Task   107 has        407 integration points.
  Task   108 has        404 integration points.
  Task   109 has        405 integration points.
  Task   110 has        409 integration points.
  Task   111 has        516 integration points.
  Task   112 has        510 integration points.
  Task   113 has        407 integration points.
  Task   114 has        411 integration points.
  Task   115 has        410 integration points.
  Task   116 has        407 integration points.
  Task   117 has        404 integration points.
  Task   118 has        410 integration points.
  Task   119 has        444 integration points.
  Task   120 has        415 integration points.
  Task   121 has        421 integration points.
  Task   122 has        429 integration points.
  Task   123 has        406 integration points.
  Task   124 has        408 integration points.
  Task   125 has        409 integration points.
  Task   126 has        413 integration points.
  Task   127 has        499 integration points.
  Initializing partition tables, free-atom densities, potentials, etc. across the integration grid (initialize_grid_storage).
  | Net number of integration points:    54608
  | of which are non-zero points    :    54608
  Renormalizing the initial density to the exact electron count on the 3D integration grid.
  | Initial density: Formal number of electrons (from input files) :      12.0000000000
  | Integrated number of electrons on 3D grid     :      11.9999999294
  | Charge integration error                      :      -0.0000000706
  | Normalization factor for density and gradient :       1.0000000059
  Renormalizing the free-atom superposition density to the exact electron count on the 3D integration grid.
  | Formal number of electrons (from input files) :      12.0000000000
  | Integrated number of electrons on 3D grid     :      11.9999999294
  | Charge integration error                      :      -0.0000000706
  | Normalization factor for density and gradient :       1.0000000059
  Obtaining max. number of non-zero basis functions in each batch (get_n_compute_maxes).
  | Maximal number of non-zero basis functions:      111 in task     0
  | Maximal number of non-zero basis functions:      111 in task     1
  | Maximal number of non-zero basis functions:      111 in task     2
  | Maximal number of non-zero basis functions:      112 in task     3
  | Maximal number of non-zero basis functions:      111 in task     4
  | Maximal number of non-zero basis functions:      112 in task     5
  | Maximal number of non-zero basis functions:      112 in task     6
  | Maximal number of non-zero basis functions:      112 in task     7
  | Maximal number of non-zero basis functions:      112 in task     8
  | Maximal number of non-zero basis functions:      112 in task     9
  | Maximal number of non-zero basis functions:      111 in task    10
  | Maximal number of non-zero basis functions:      111 in task    11
  | Maximal number of non-zero basis functions:      112 in task    12
  | Maximal number of non-zero basis functions:      112 in task    13
  | Maximal number of non-zero basis functions:      112 in task    14
  | Maximal number of non-zero basis functions:      111 in task    15
  | Maximal number of non-zero basis functions:      113 in task    16
  | Maximal number of non-zero basis functions:      107 in task    17
  | Maximal number of non-zero basis functions:      114 in task    18
  | Maximal number of non-zero basis functions:      114 in task    19
  | Maximal number of non-zero basis functions:      112 in task    20
  | Maximal number of non-zero basis functions:      111 in task    21
  | Maximal number of non-zero basis functions:      112 in task    22
  | Maximal number of non-zero basis functions:      111 in task    23
  | Maximal number of non-zero basis functions:      112 in task    24
  | Maximal number of non-zero basis functions:      112 in task    25
  | Maximal number of non-zero basis functions:      111 in task    26
  | Maximal number of non-zero basis functions:      111 in task    27
  | Maximal number of non-zero basis functions:      111 in task    28
  | Maximal number of non-zero basis functions:      111 in task    29
  | Maximal number of non-zero basis functions:      112 in task    30
  | Maximal number of non-zero basis functions:      114 in task    31
  | Maximal number of non-zero basis functions:      111 in task    32
  | Maximal number of non-zero basis functions:      110 in task    33
  | Maximal number of non-zero basis functions:      111 in task    34
  | Maximal number of non-zero basis functions:      111 in task    35
  | Maximal number of non-zero basis functions:      111 in task    36
  | Maximal number of non-zero basis functions:      111 in task    37
  | Maximal number of non-zero basis functions:      111 in task    38
  | Maximal number of non-zero basis functions:      108 in task    39
  | Maximal number of non-zero basis functions:      108 in task    40
  | Maximal number of non-zero basis functions:      107 in task    41
  | Maximal number of non-zero basis functions:      114 in task    42
  | Maximal number of non-zero basis functions:      112 in task    43
  | Maximal number of non-zero basis functions:      112 in task    44
  | Maximal number of non-zero basis functions:      112 in task    45
  | Maximal number of non-zero basis functions:      111 in task    46
  | Maximal number of non-zero basis functions:      112 in task    47
  | Maximal number of non-zero basis functions:      112 in task    48
  | Maximal number of non-zero basis functions:      112 in task    49
  | Maximal number of non-zero basis functions:      112 in task    50
  | Maximal number of non-zero basis functions:      110 in task    51
  | Maximal number of non-zero basis functions:      108 in task    52
  | Maximal number of non-zero basis functions:      110 in task    53
  | Maximal number of non-zero basis functions:      114 in task    54
  | Maximal number of non-zero basis functions:      111 in task    55
  | Maximal number of non-zero basis functions:      109 in task    56
  | Maximal number of non-zero basis functions:      114 in task    57
  | Maximal number of non-zero basis functions:      114 in task    58
  | Maximal number of non-zero basis functions:       71 in task    59
  | Maximal number of non-zero basis functions:      112 in task    60
  | Maximal number of non-zero basis functions:      111 in task    61
  | Maximal number of non-zero basis functions:      114 in task    62
  | Maximal number of non-zero basis functions:      114 in task    63
  | Maximal number of non-zero basis functions:      114 in task    64
  | Maximal number of non-zero basis functions:      110 in task    65
  | Maximal number of non-zero basis functions:      111 in task    66
  | Maximal number of non-zero basis functions:      112 in task    67
  | Maximal number of non-zero basis functions:      112 in task    68
  | Maximal number of non-zero basis functions:      112 in task    69
  | Maximal number of non-zero basis functions:      111 in task    70
  | Maximal number of non-zero basis functions:      101 in task    71
  | Maximal number of non-zero basis functions:      110 in task    72
  | Maximal number of non-zero basis functions:      112 in task    73
  | Maximal number of non-zero basis functions:      109 in task    74
  | Maximal number of non-zero basis functions:      111 in task    75
  | Maximal number of non-zero basis functions:      112 in task    76
  | Maximal number of non-zero basis functions:      112 in task    77
  | Maximal number of non-zero basis functions:      112 in task    78
  | Maximal number of non-zero basis functions:      112 in task    79
  | Maximal number of non-zero basis functions:      112 in task    80
  | Maximal number of non-zero basis functions:      113 in task    81
  | Maximal number of non-zero basis functions:      112 in task    82
  | Maximal number of non-zero basis functions:      114 in task    83
  | Maximal number of non-zero basis functions:      114 in task    84
  | Maximal number of non-zero basis functions:      112 in task    85
  | Maximal number of non-zero basis functions:      112 in task    86
  | Maximal number of non-zero basis functions:      108 in task    87
  | Maximal number of non-zero basis functions:      112 in task    88
  | Maximal number of non-zero basis functions:      110 in task    89
  | Maximal number of non-zero basis functions:      111 in task    90
  | Maximal number of non-zero basis functions:      114 in task    91
  | Maximal number of non-zero basis functions:      112 in task    92
  | Maximal number of non-zero basis functions:      111 in task    93
  | Maximal number of non-zero basis functions:      111 in task    94
  | Maximal number of non-zero basis functions:      112 in task    95
  | Maximal number of non-zero basis functions:      111 in task    96
  | Maximal number of non-zero basis functions:      111 in task    97
  | Maximal number of non-zero basis functions:      114 in task    98
  | Maximal number of non-zero basis functions:      111 in task    99
  | Maximal number of non-zero basis functions:      114 in task   100
  | Maximal number of non-zero basis functions:      112 in task   101
  | Maximal number of non-zero basis functions:      111 in task   102
  | Maximal number of non-zero basis functions:      111 in task   103
  | Maximal number of non-zero basis functions:      111 in task   104
  | Maximal number of non-zero basis functions:      114 in task   105
  | Maximal number of non-zero basis functions:      112 in task   106
  | Maximal number of non-zero basis functions:      112 in task   107
  | Maximal number of non-zero basis functions:      112 in task   108
  | Maximal number of non-zero basis functions:      112 in task   109
  | Maximal number of non-zero basis functions:      112 in task   110
  | Maximal number of non-zero basis functions:      111 in task   111
  | Maximal number of non-zero basis functions:      111 in task   112
  | Maximal number of non-zero basis functions:      112 in task   113
  | Maximal number of non-zero basis functions:      112 in task   114
  | Maximal number of non-zero basis functions:      114 in task   115
  | Maximal number of non-zero basis functions:      112 in task   116
  | Maximal number of non-zero basis functions:      114 in task   117
  | Maximal number of non-zero basis functions:      112 in task   118
  | Maximal number of non-zero basis functions:      111 in task   119
  | Maximal number of non-zero basis functions:      111 in task   120
  | Maximal number of non-zero basis functions:      111 in task   121
  | Maximal number of non-zero basis functions:      111 in task   122
  | Maximal number of non-zero basis functions:      112 in task   123
  | Maximal number of non-zero basis functions:      114 in task   124
  | Maximal number of non-zero basis functions:      112 in task   125
  | Maximal number of non-zero basis functions:      112 in task   126
  | Maximal number of non-zero basis functions:      111 in task   127
  Allocating        0.099 MB for KS_eigenvector
  Integrating Hamiltonian matrix: batch-based integration.
  Time summed over all CPUs for integration: real work        0.491 s, elapsed        2.046 s => Consider using load balancing!
  Integrating overlap matrix.
  Time summed over all CPUs for integration: real work        0.190 s, elapsed        0.226 s
  Deallocating overlap matrix.

  Updating Kohn-Sham eigenvalues and eigenvectors using ELSI and the ELPA eigensolver.
  Overlap matrix is not singular
  | Lowest and highest eigenvalues :  0.8729E-04,  0.2000E+01
  Finished singularity check of overlap matrix
  | Time :     0.024 s
  Starting ELPA eigensolver
  Finished Cholesky decomposition
  | Time :     0.006 s
  Finished transformation to standard eigenproblem
  | Time :     0.002 s
  Finished solving standard eigenproblem
  | Time :     0.054 s
  Finished back-transformation of eigenvectors
  | Time :     0.000 s

  Obtaining occupation numbers and electronic chemical potential using ELSI.
  | Note that, for insulating systems, the printed 'chemical potential' value is not uniquely defined.
  | It can be anywhere in the energy gap, as long as it correctly separates occupied and unoccupied states.
[...]
      20    0.0000       10.9046       -0.8913       -4.0021       -1.6483       12.3671
      21    0.0000       10.9046       -0.8913       -4.0021       -1.3398       12.6756
      22    0.0000       11.8434       -0.5954       -3.4774       -1.5883       13.1371
      23    0.0000       13.4528       -1.0546       -4.7355       -2.0274       15.1063
      24    0.0000       13.4528       -1.0546       -4.7355       -2.0345       15.0992
      25    0.0000       15.0970       -1.7099       -5.1820       -1.6777       16.8914
      26    0.0000       19.1631       -3.2742       -9.4423       -2.5861       22.7451
      27    0.0000       22.7202       -1.9459       -6.8357       -1.9255       25.6846
      28    0.0000       22.7202       -1.9459       -6.8357       -1.8961       25.7139
      29    0.0000       25.9377       -2.1927       -7.0039       -2.5495       28.1995
      30    0.0000       27.6922       -1.7253       -6.7604       -1.9281       30.7992
      31    0.0000       27.6922       -1.7253       -6.7604       -1.9654       30.7619
      32    0.0000       28.7405       -0.6216       -5.2526       -0.9711       32.4003
      33    0.0000       28.7405       -0.6216       -5.2526       -1.1279       32.2435
      34    0.0000       30.1763       -1.1090       -6.4247       -2.4974       32.9946
      35    0.0000       30.1763       -1.1090       -6.4247       -2.3471       33.1449
      36    0.0000       30.6596       -1.7296       -7.0609       -2.5840       33.4069
      37    0.0000       30.6596       -1.7296       -7.0609       -2.8223       33.1686
      38    0.0000       32.0293       -0.7362       -5.4449       -1.1281       35.6099
      39    0.0000       34.3953       -1.7043       -6.7542       -2.5390       36.9063
      40    0.0000       34.7998       -0.8513       -5.9258       -1.6757       38.1985
      41    0.0000       34.7998       -0.8513       -5.9258       -1.6469       38.2273
      42    0.0000       34.8744       -1.4657       -7.1751       -2.4582       38.1256
      43    0.0000       34.8744       -1.4657       -7.1751       -2.1138       38.4700
      44    0.0000       40.8501       -1.9071       -7.7378       -3.1326       43.5483
      45    0.0000       42.7138       -1.5594       -7.6348       -2.5836       46.2055
      46    0.0000       42.7138       -1.5594       -7.6348       -2.5500       46.2391
      47    0.0000       45.5254       -2.6329       -9.5828       -3.1509       49.3244
      48    0.0000       53.3449       -2.2672       -9.7005       -2.9115       57.8667
      49    0.0000       53.3449       -2.2672       -9.7005       -2.9234       57.8548
      50    0.0000       62.2521       -2.1099       -9.6942       -2.1809       67.6555
      51    0.0000       67.3051       -1.4771       -9.0732       -2.6142       72.2870
      52    0.0000       67.3051       -1.4771       -9.0732       -2.1698       72.7315
      53    0.0000       72.4748       -2.4189      -10.7572       -3.1503       77.6629
      54    0.0000       72.4748       -2.4189      -10.7572       -3.2205       77.5926
      55    0.0000       73.0753       -2.7198      -10.6396       -2.5012       78.4938
      56    0.0000       77.9085       -2.5624      -11.3144       -0.7347       85.9258
      57    0.0000       77.9085       -2.5624      -11.3144       -1.5916       85.0689
      58    0.0000       81.7209       -1.9808      -10.4700       -3.1767       87.0334
      59    0.0000       81.7209       -1.9808      -10.4700       -3.6614       86.5487
      60    0.0000       85.9989       -0.5875       -7.5961       -1.5895       91.4179
      61    0.0000       85.9989       -0.5875       -7.5961       -1.5398       91.4676
      62    0.0000       88.1249       -2.5057      -11.1446       -3.1674       93.5964
      63    0.0000       89.9014       -1.0513       -8.3796 *** no convergence (see below) ***
      64    0.0000       89.9014       -1.0513       -8.3796       -1.6183       95.6115
      65    0.0000       91.2034       -0.7001       -8.0215       -2.2551       96.2697
      66    0.0000       91.2034       -0.7001       -8.0215       -1.4559       97.0690
      67    0.0000       96.8404       -0.6970       -8.0851       -2.9419      101.2866
      68    0.0000       96.8406       -0.6970       -8.0851       -2.8874      101.3413
      69    0.0000       98.6860       -0.9262       -8.5462       -3.1749      103.1311
      70    0.0000       98.6860       -0.9262       -8.5462       -2.9721      103.3339
      71    0.0000       98.9895       -1.0748       -8.3191       -4.3474      101.8864
      72    0.0000       99.1342       -1.0415       -9.1657       -3.2598      103.9986
      73    0.0000       99.1344       -1.0416       -9.1661       -3.2353      104.0237
      74    0.0000       99.7856       -0.8750       -8.9227       -3.4001      104.4331
      75    0.0000       99.7856       -0.8750       -8.9227       -3.5926      104.2406
      76    0.0000      101.7363       -1.8318      -10.3105       -1.7126      108.5024
      77    0.0000      107.4754       -4.0467      -15.1659       -5.3687      113.2259
      78    0.0000      107.4754       -4.0467      -15.1659       -5.6371      112.9576
      79    0.0000      110.6419       -1.0908       -9.5325       -2.4778      116.6058
      80    0.0000      110.6419       -1.0908       -9.5325       -2.4913      116.5922
      81    0.0000      113.5869       -1.0257       -9.5461       -1.6339      120.4733
      82    0.0000      113.5869       -1.0257       -9.5460       -1.7283      120.3789
      83    0.0000      113.7208       -2.7043      -12.3250       -2.7186      120.6229
      84    0.0000      119.8840       -3.1419      -12.8404       -2.6829      126.8996
      85    0.0000      143.4608       -3.6318      -15.3400       -2.6677      152.5013
      86    0.0000      151.4832       -1.8892      -12.0337       -0.8401      160.7876
      87    0.0000      151.4832       -1.8892      -12.0337       -0.8657      160.7620
      88    0.0000      171.1809       -2.8849      -12.8755       -0.9185      180.2530
      89    0.0000      186.6500       -1.3501      -12.4096       -3.3618      194.3476
      90    0.0000      186.6500       -1.3501      -12.4096       -3.2882      194.4213
      91    0.0000      192.2653       -1.3609      -12.5531       -2.7172      200.7403
      92    0.0000      192.2653       -1.3609      -12.5531       -2.5376      200.9199
      93    0.0000      207.1776       -1.4527      -13.0054       -3.1007      215.6296
      94    0.0000      207.1776       -1.4527      -13.0054       -1.9484      216.7819
      95    0.0000      209.5206       -1.6315      -13.4063       -3.3884      217.9070
      96    0.0000      209.5206       -1.6315      -13.4063       -3.4495      217.8458
      97    0.0000      211.8859       -2.0178      -14.0207       -2.9133      220.9754
      98    0.0000      231.1940       -1.8894      -14.7700       -5.4508      238.6238
      99    0.0000      231.1940       -1.8894      -14.7700       -5.4717      238.6029
     100    0.0000      239.7811       -1.7284      -14.4603       -5.4093      247.1036
     101    0.0000      239.7812       -1.7284      -14.4602       -5.5713      246.9417
     102    0.0000      248.5906       -1.6857      -14.4895       -5.1055      256.2890
     103    0.0000      248.5906       -1.6857      -14.4895       -4.1864      257.2080
     104    0.0000      248.8520       -2.3627      -16.0428       -6.4063      256.1258
     105    0.0000      248.8526       -2.3627      -16.0429       -7.5158      255.0169
     106    0.0000      249.7737       -2.8547      -16.0056       -3.8410      259.0836
     107    0.0000      268.8638       -2.4387      -16.2623      -14.4572      268.2302
     108    0.0000      273.2010       -2.0745      -15.5905       -5.4268      281.2901
     109    0.0000      273.2010       -2.0745      -15.5905        5.3894      292.1064
     110    0.0000      297.0620       -5.7462      -20.1095       -4.0506      307.3746
     111    0.0000      525.6627       -8.0682      -28.6263       -2.5272      543.6935
     112    0.0000     1010.2991      -11.7547      -40.8772       -2.5342     1036.8874
     113    0.0000     2784.4163       -9.1963      -58.6342       -3.3603     2830.4939
     114    0.0000     5360.8112      -13.4199      -82.7305       -3.9500     5426.1718
----------------------------------------------------------------------------------------

   DFT/Hartree-Fock HOMO level (eV):    -8.7295   -8.7295

   Quasiparticle HOMO level (eV):      -11.5450  -11.5450
----------------------------------------------------------------------------------------

  Printing out the self-energy matrix element:  6 for spin  1

------------------------------------------------------------------------------------------------------

  Start calculating the spectral function for state:  6

------------------------------------------------------------------------------------------------------

          | Total time for transforming the 3-center integrals :        0.185 s
          | Total time for calculating the exchange-correlation
                                  energy matrix elements   :        0.004 s
          | Total time for calculating polarisability     
                        for imaginary frequencies          :        4.651 s
          | Total time for calculating self energy 
                        on imaginary frequency axis        :       36.208 s
          | Total time for calculating the quasiparticle 
                  energies with analytic continuation      :        0.016 s
          | Total time for calculating the quasiparticle 
                  energies with contour deformation        :       46.657 s

------------------------------------------------------------------------------
  Final output of selected total energy values:

  The following output summarizes some interesting total energy values
  at the end of a run (AFTER all relaxation, molecular dynamics, etc.).

  | Total energy of the DFT / Hartree-Fock s.c.f. calculation      :          -2157.534836362 eV
  | Final zero-broadening corrected energy (caution - metals only) :          -2157.534836362 eV
  | For reference only, the value of 1 Hartree used in FHI-aims is :             27.211384500 eV

  Before relying on these values, please be sure to understand exactly which
  total energy value is referred to by a given number. Different objects may
  all carry the same name 'total energy'. Definitions:

  Total energy of the DFT / Hartree-Fock s.c.f. calculation:
  | Note that this energy does not include ANY quantities calculated after the
  | s.c.f. cycle, in particular not ANY RPA, MP2, etc. many-body perturbation terms.

  Final zero-broadening corrected energy:
  | For metallic systems only, a broadening of the occupation numbers at the Fermi
  | level can be extrapolated back to zero broadening by an electron-gas inspired
  | formula. For all systems that are not real metals, this value can be
  | meaningless and should be avoided.

------------------------------------------------------------------------------
  Methods described in the following list of references were used in this FHI-aims run.
  If you publish the results, please make sure to cite these reference if they apply.
  FHI-aims is an academic code, and for our developers (often, Ph.D. students
  and postdocs), scientific credit in the community is essential.
  Thank you for helping us!

  For any use of FHI-aims, please cite:

    Volker Blum, Ralf Gehrke, Felix Hanke, Paula Havu, Ville Havu,
    Xinguo Ren, Karsten Reuter, and Matthias Scheffler
    'Ab initio molecular simulations with numeric atom-centered orbitals'
    Computer Physics Communications 180, 2175-2196 (2009)
    http://doi.org/10.1016/j.cpc.2009.06.022


  For Hartree-Fock, hybrid functionals, or many-body perturbation theory used in your run, please cite:

    Xinguo Ren, Patrick Rinke, Volker Blum, Juergen Wieferink, Alex Tkatchenko,
    Andrea Sanfilippo, Karsten Reuter, and Matthias Scheffler,
    'Resolution-of-identity approach to Hartree-Fock, hybrid density functionals,
    RPA, MP2, and GW with numeric atom-centered orbital basis functions'
    New Journal of Physics 14, 053020 (2012).
    http://doi.org/10.1088/1367-2630/14/5/053020


  The ELSI infrastructure was used in your run to solve the Kohn-Sham electronic structure.
  Please check out http://elsi-interchange.org to learn more.
  If scalability is important for your project, please acknowledge ELSI by citing:

    V. W-z. Yu, F. Corsetti, A. Garcia, W. P. Huhn, M. Jacquelin, W. Jia,
    B. Lange, L. Lin, J. Lu, W. Mi, A. Seifitokaldani, A. Vazquez-Mayagoitia,
    C. Yang, H. Yang, and V. Blum
    'ELSI: A unified software interface for Kohn-Sham electronic structure solvers'
    Computer Physics Communications 222, 267-285 (2018).
    http://doi.org/10.1016/j.cpc.2017.09.007


  For the real-space grid partitioning and parallelization used in this calculation, please cite:

    Ville Havu, Volker Blum, Paula Havu, and Matthias Scheffler,
    'Efficient O(N) integration for all-electron electronic structure calculation'
    'using numerically tabulated basis functions'
    Journal of Computational Physics 228, 8367-8379 (2009).
    http://doi.org/10.1016/j.jcp.2009.08.008

  Of course, there are many other important community references, e.g., those cited in the
  above references. Our list is limited to references that describe implementations in the
  FHI-aims code. The reason is purely practical (length of this list) - please credit others as well.

 * A warning was issued further up regarding the accuracy of onsite integrals.
   An integral with a negative eigenvalue was among the flagged integrals.
   In most standard situations, this warning is probably harmless.
   If needed, this can be verified by adjusting the radial_multiplier flag.

 * Warning - angular integration grids had to be adjusted for use with RI_method 'V'.
 * Background: You are using an electronic structure method that requires RI_method 'V'
 * for the resolution of identity of the Coulomb operator. (See Ren et al.,
 * New J. Phys 2012 for details.) This method requires three-center integrations
 * to be carried out on FHI-aims' normal angular and radial integration grids.
 * (See FHI-aims CPC Blum et al. 2009, p. 2183 for grid details and references.)
 * One of the angular grids specified in your control.in file was not large
 * enough for the maximal angular momenta of orbital and product basis functions
 * for its species.
 * This can lead to atomic total energy errors which cancel in energy differences.
 * Effective Sep 22, 2014, we have changed the default behavior of the code to
 * simply 'upgrade' the angular grids internally to a safe setting in this case.
 * Please be sure to NOT mix total energies from before and after the change.

 * Warning! One or more quasiparticle eigenvalues listed above could not be
 * determined unambiguously in the list given above. This is related to the
 * default numerical fit procedure used to determine parameters for analytical
 * continuation of the self-energy from the imaginary axis to the real axis.
 * More information can be found in Sec. 3.21 in the manual.
 * In particular, the keyword 'anacon_type 0' can be used to change the default
 * analytical continuation type to the slightly less accurate 'two-pole' self-
 * energy model, which is more robust than the 16-parameter Pade approximation
 * used by default. Again, please see the manual for the mathematical definitions.

------------------------------------------------------------
          Leaving FHI-aims.
          Date     :  20240515, Time     :  123529.397

          Computational steps:
          | Number of self-consistency cycles          :           18
          | Number of SCF (re)initializations          :            1

          Detailed time accounting                     :  max(cpu_time)    wall_clock(cpu1)
          | Total time                                  :      240.600 s         244.426 s
          | Preparation time                            :        0.167 s           0.177 s
          | Boundary condition initalization            :        0.001 s           0.001 s
          | Grid partitioning                           :        0.097 s           0.098 s
          | Preloading free-atom quantities on grid     :        0.019 s           0.020 s
          | Free-atom superposition energy              :        0.002 s           0.002 s
          | Total time for integrations                 :        0.284 s           0.238 s
          | Product basis setup: Total time             :        2.108 s           2.335 s
          | Product basis: | 3-center integrations     :(       0.968 s)  (       0.971 s)
          | Product basis: | 2-center integrations     :(       0.087 s)  (       0.088 s)
          | Product basis: | 2-center linear algebra   :(       0.523 s)  (       0.527 s)
          | Product basis: | 3-center x 2-center       :(       0.377 s)  (       0.561 s)
          | Total time evaluating exchange matrix       :        0.090 s           0.090 s
          | Transforming ovlp_3fn to ovlp_3KS           :        0.185 s           0.186 s
          | Screened Coulomb matrix W_mn(iw)            :       40.611 s          40.872 s
          | Polarisability matrix Pi_PQ(iw)             :        4.651 s           4.651 s
          | Total time for GW calculation               :      232.732 s         236.020 s
          | GW self-energy (analytic cont.)             :       41.004 s          41.283 s
          | Contour def: | Solving qp equations         :       46.657 s          46.800 s
          | Contour def: | GW self-energy               :      190.407 s         190.812 s
          | Contour def: | Scr Coulomb matrix W_mn(w)   :      189.691 s         190.098 s
          | Contour def: | CD-WAC W_mn(w) and Pade      :        0.000 s           0.000 s
          | Contour def: | Scr aux Coulomb mat W_PQ(w)  :      142.653 s         142.823 s
          | Contour def: | Polarisability Pi_PQ(w)      :       74.450 s          74.157 s
          | Contour def: | Printing self-energy CD      :      140.096 s         140.749 s
          | Contour def: | Spectral function CD         :        4.794 s           6.819 s
          | Total time for solution of K.-S. equations  :        0.356 s           0.359 s
          | Total time for density update               :        0.271 s           0.274 s
          | Total time for mixing                       :        3.501 s           3.063 s
          | Total time for Hartree multipole update     :        0.168 s           0.167 s
          | Total time for Hartree multipole sum        :        0.085 s           0.084 s
          | Total time for total energy evaluation      :        0.008 s           0.006 s

          Partial memory accounting:
          | Residual value for overall tracked memory usage across tasks:     0.000000 MB (should be 0.000000 MB)
          | Peak values for overall tracked memory usage:
          |   Minimum:        0.900 MB (on task  59 after allocating gradient_basis_wave)
          |   Maximum:        1.327 MB (on task  18 after allocating gradient_basis_wave)
          |   Average:        1.298 MB
          | Largest tracked array allocation:
          |   Minimum:        0.302 MB (gradient_basis_wave on task  59)
          |   Maximum:        0.485 MB (gradient_basis_wave on task  18)
          |   Average:        0.474 MB
          Note:  These values currently only include a subset of arrays which are explicitly tracked.
          The "true" memory usage will be greater.

          Have a nice day.
------------------------------------------------------------
