------------------------------------------------------------
          Invoking FHI-aims ...

          When using FHI-aims, please cite the following reference:

            Volker Blum, Ralf Gehrke, Felix Hanke, Paula Havu,
            Ville Havu, Xinguo Ren, Karsten Reuter, and Matthias Scheffler,
            'Ab Initio Molecular Simulations with Numeric Atom-Centered Orbitals',
            Computer Physics Communications 180, 2175-2196 (2009)

          In addition, many other developments in FHI-aims are likely important for
          your particular application. A partial list of references is given at the end of
          this file. Thank you for giving credit to the authors of these developments.

          For any questions about FHI-aims, please visit our slack channel at

            https://fhi-aims.slack.com

          and our main development and support site at

            https://aims-git.rz-berlin.mpg.de .

          The latter site, in particular, has a wiki to collect information, as well
          as an issue tracker to log discussions, suggest improvements, and report issues
          or bugs. https://aims-git.rz-berlin.mpg.de is also the main development site
          of the project and all new and updated code versions can be obtained there.
          Please send an email to aims-coordinators@fhi-berlin.mpg.de and we will add
          you to these sites. They are for you and everyone is welcome there.

------------------------------------------------------------



  Date     :  20240515, Time     :  123124.224
  Time zero on CPU 1             :   0.273629300000000E+01  s.
  Internal wall clock time zero  :           485008284.224  s.

  FHI-aims created a unique identifier for this run for later identification
  aims_uuid : 229A15AF-F6B9-41A8-A01B-A920E19A87B3

  Build configuration of the current instance of FHI-aims
  -------------------------------------------------------
  FHI-aims version      : 221103.1
  Commit number         : GITDIR-NOTFOUND
  CMake host system     : Linux-4.18.0-372.32.1.el8_6.x86_64
  CMake version         : 3.24.3
  Fortran compiler      : /opt/software/pc2/EB-SW/software/OpenMPI/4.1.4-GCC-12.2.0/bin/mpifort (GNU) version 12.2.0
  Fortran compiler flags: -O3 -ffree-line-length-none -fallow-argument-mismatch -march=znver3 -mprefer-vector-width=256
  C compiler            : /opt/software/pc2/EB-SW/software/GCCcore/12.2.0/bin/gcc (GNU) version 12.2.0
  C compiler flags      : -O3 -DNDEBUG -funroll-loops -march=znver3 -mprefer-vector-width=256
  HIP compiler          :
  HIP compiler flags    :
  HIP GPU arch          :
  Using MPI
  Using ScaLAPACK
  Using LibXC
  Using i-PI
  Using RLSY
  Linking against: /opt/software/pc2/EB-SW/software/ScaLAPACK/2.2.0-gompi-2022b-fb/lib/libscalapack.so
                   /opt/software/pc2/EB-SW/software/OpenBLAS/0.3.21-GCC-12.2.0/lib/libopenblas.so

  Using      128 parallel tasks.
  Task        0 on host n2cn0395.ab2021.local reporting.
  Task        1 on host n2cn0395.ab2021.local reporting.
  Task        2 on host n2cn0395.ab2021.local reporting.
  Task        3 on host n2cn0395.ab2021.local reporting.
  Task        4 on host n2cn0395.ab2021.local reporting.
  Task        5 on host n2cn0395.ab2021.local reporting.
  Task        6 on host n2cn0395.ab2021.local reporting.
  Task        7 on host n2cn0395.ab2021.local reporting.
  Task        8 on host n2cn0395.ab2021.local reporting.
  Task        9 on host n2cn0395.ab2021.local reporting.
  Task       10 on host n2cn0395.ab2021.local reporting.
  Task       11 on host n2cn0395.ab2021.local reporting.
  Task       12 on host n2cn0395.ab2021.local reporting.
  Task       13 on host n2cn0395.ab2021.local reporting.
  Task       14 on host n2cn0395.ab2021.local reporting.
  Task       15 on host n2cn0395.ab2021.local reporting.
  Task       16 on host n2cn0395.ab2021.local reporting.
  Task       17 on host n2cn0395.ab2021.local reporting.
  Task       18 on host n2cn0395.ab2021.local reporting.
  Task       19 on host n2cn0395.ab2021.local reporting.
  Task       20 on host n2cn0395.ab2021.local reporting.
  Task       21 on host n2cn0395.ab2021.local reporting.
  Task       22 on host n2cn0395.ab2021.local reporting.
  Task       23 on host n2cn0395.ab2021.local reporting.
  Task       24 on host n2cn0395.ab2021.local reporting.
  Task       25 on host n2cn0395.ab2021.local reporting.
  Task       26 on host n2cn0395.ab2021.local reporting.
  Task       27 on host n2cn0395.ab2021.local reporting.
  Task       28 on host n2cn0395.ab2021.local reporting.
  Task       29 on host n2cn0395.ab2021.local reporting.
  Task       30 on host n2cn0395.ab2021.local reporting.
  Task       31 on host n2cn0395.ab2021.local reporting.
  Task       32 on host n2cn0395.ab2021.local reporting.
  Task       33 on host n2cn0395.ab2021.local reporting.
  Task       34 on host n2cn0395.ab2021.local reporting.
  Task       35 on host n2cn0395.ab2021.local reporting.
  Task       36 on host n2cn0395.ab2021.local reporting.
  Task       37 on host n2cn0395.ab2021.local reporting.
  Task       38 on host n2cn0395.ab2021.local reporting.
  Task       39 on host n2cn0395.ab2021.local reporting.
  Task       40 on host n2cn0395.ab2021.local reporting.
  Task       41 on host n2cn0395.ab2021.local reporting.
  Task       42 on host n2cn0395.ab2021.local reporting.
  Task       43 on host n2cn0395.ab2021.local reporting.
  Task       44 on host n2cn0395.ab2021.local reporting.
  Task       45 on host n2cn0395.ab2021.local reporting.
  Task       46 on host n2cn0395.ab2021.local reporting.
  Task       47 on host n2cn0395.ab2021.local reporting.
  Task       48 on host n2cn0395.ab2021.local reporting.
  Task       49 on host n2cn0395.ab2021.local reporting.
  Task       50 on host n2cn0395.ab2021.local reporting.
  Task       51 on host n2cn0395.ab2021.local reporting.
  Task       52 on host n2cn0395.ab2021.local reporting.
  Task       53 on host n2cn0395.ab2021.local reporting.
  Task       54 on host n2cn0395.ab2021.local reporting.
  Task       55 on host n2cn0395.ab2021.local reporting.
  Task       56 on host n2cn0395.ab2021.local reporting.
  Task       57 on host n2cn0395.ab2021.local reporting.
  Task       58 on host n2cn0395.ab2021.local reporting.
  Task       59 on host n2cn0395.ab2021.local reporting.
  Task       60 on host n2cn0395.ab2021.local reporting.
  Task       61 on host n2cn0395.ab2021.local reporting.
  Task       62 on host n2cn0395.ab2021.local reporting.
  Task       63 on host n2cn0395.ab2021.local reporting.
  Task       64 on host n2cn0395.ab2021.local reporting.
  Task       65 on host n2cn0395.ab2021.local reporting.
  Task       66 on host n2cn0395.ab2021.local reporting.
  Task       67 on host n2cn0395.ab2021.local reporting.
  Task       68 on host n2cn0395.ab2021.local reporting.
  Task       69 on host n2cn0395.ab2021.local reporting.
  Task       70 on host n2cn0395.ab2021.local reporting.
  Task       71 on host n2cn0395.ab2021.local reporting.
  Task       72 on host n2cn0395.ab2021.local reporting.
  Task       73 on host n2cn0395.ab2021.local reporting.
  Task       74 on host n2cn0395.ab2021.local reporting.
  Task       75 on host n2cn0395.ab2021.local reporting.
  Task       76 on host n2cn0395.ab2021.local reporting.
  Task       77 on host n2cn0395.ab2021.local reporting.
  Task       78 on host n2cn0395.ab2021.local reporting.
  Task       79 on host n2cn0395.ab2021.local reporting.
  Task       80 on host n2cn0395.ab2021.local reporting.
  Task       81 on host n2cn0395.ab2021.local reporting.
  Task       82 on host n2cn0395.ab2021.local reporting.
  Task       83 on host n2cn0395.ab2021.local reporting.
  Task       84 on host n2cn0395.ab2021.local reporting.
  Task       85 on host n2cn0395.ab2021.local reporting.
  Task       86 on host n2cn0395.ab2021.local reporting.
  Task       87 on host n2cn0395.ab2021.local reporting.
  Task       88 on host n2cn0395.ab2021.local reporting.
  Task       89 on host n2cn0395.ab2021.local reporting.
  Task       90 on host n2cn0395.ab2021.local reporting.
  Task       91 on host n2cn0395.ab2021.local reporting.
  Task       92 on host n2cn0395.ab2021.local reporting.
  Task       93 on host n2cn0395.ab2021.local reporting.
  Task       94 on host n2cn0395.ab2021.local reporting.
  Task       95 on host n2cn0395.ab2021.local reporting.
  Task       96 on host n2cn0395.ab2021.local reporting.
  Task       97 on host n2cn0395.ab2021.local reporting.
  Task       98 on host n2cn0395.ab2021.local reporting.
  Task       99 on host n2cn0395.ab2021.local reporting.
  Task      100 on host n2cn0395.ab2021.local reporting.
  Task      101 on host n2cn0395.ab2021.local reporting.
  Task      102 on host n2cn0395.ab2021.local reporting.
  Task      103 on host n2cn0395.ab2021.local reporting.
  Task      104 on host n2cn0395.ab2021.local reporting.
  Task      105 on host n2cn0395.ab2021.local reporting.
  Task      106 on host n2cn0395.ab2021.local reporting.
  Task      107 on host n2cn0395.ab2021.local reporting.
  Task      108 on host n2cn0395.ab2021.local reporting.
  Task      109 on host n2cn0395.ab2021.local reporting.
  Task      110 on host n2cn0395.ab2021.local reporting.
  Task      111 on host n2cn0395.ab2021.local reporting.
  Task      112 on host n2cn0395.ab2021.local reporting.
  Task      113 on host n2cn0395.ab2021.local reporting.
  Task      114 on host n2cn0395.ab2021.local reporting.
  Task      115 on host n2cn0395.ab2021.local reporting.
  Task      116 on host n2cn0395.ab2021.local reporting.
  Task      117 on host n2cn0395.ab2021.local reporting.
  Task      118 on host n2cn0395.ab2021.local reporting.
  Task      119 on host n2cn0395.ab2021.local reporting.
  Task      120 on host n2cn0395.ab2021.local reporting.
  Task      121 on host n2cn0395.ab2021.local reporting.
  Task      122 on host n2cn0395.ab2021.local reporting.
  Task      123 on host n2cn0395.ab2021.local reporting.
  Task      124 on host n2cn0395.ab2021.local reporting.
  Task      125 on host n2cn0395.ab2021.local reporting.
  Task      126 on host n2cn0395.ab2021.local reporting.
  Task      127 on host n2cn0395.ab2021.local reporting.

  Performing system and environment tests:
  | Environment variable OMP_NUM_THREADS correctly set to 1.
  | Checking for ScaLAPACK...
  | Testing pdtran()...
  | All pdtran() tests passed.

  Obtaining array dimensions for all initial allocations:
  
  -----------------------------------------------------------------------
  Parsing control.in (first pass over file, find array dimensions only).
  The contents of control.in will be repeated verbatim below
  unless switched off by setting 'verbatim_writeout .false.' .
  in the first line of control.in .
  -----------------------------------------------------------------------
  
  #control.in header for database project
  #using def2-QVPZ basis for light and heavy elements
  
  #########################################
    xc                 pbe0
    qpe_calc           gw
    hybrid_xc_coeff 0.25
    #RI_method v
    #spin               collinear
    #default_initial_moment 0.01
    spin none
  
    anacon_type  1
    n_anacon_par 128
    frequency_points 600
    contour_def_gw   3 23
    contour_eta 0.004
    state_lower_limit 1
    state_upper_limit 500
    print_self_energy 12 -20.0 0.0
  
    relativistic none
    override_relativity .true.
    partition_type rho_r2
    density_update_method density_matrix
  
    calc_spectral_func -20.0 0.0 0.01
    spectral_func_state 12
  
  #########################################
    occupation_type    gaussian 0.000001
    mixer              pulay
      n_max_pulay        10
      charge_mix_param   0.2
    sc_accuracy_rho    1E-5
    sc_accuracy_eev    1E-5
    sc_accuracy_etot   1E-5
    sc_iter_limit      400
  #########################################
    prodbas_threshold  1.e-5
    KS_method          serial
    empty_states       25000
    # Do not check for overlapping xxx matrix
    # Not recommended
    override_illconditioning .true.
  #########################################
  ################################################################################
  #
  #  FHI-aims code project
  #  VB, Fritz-Haber Institut, 2009
  #
  #  Suggested "light" defaults for O atom (to be pasted into control.in file)
  #  Be sure to double-check any results obtained with these settings for post-processing,
  #  e.g., with the "tight" defaults and larger basis sets.
  #
  ################################################################################
  ################################################################################
  #
  #  FHI-aims code project
  #  VB, Fritz-Haber Institut, 2007
  #
  #  Suggested "safe" defaults for O atom (to be pasted into control.in file)
  #
  ################################################################################
    species        O
  #     global species definitions
      nucleus             8
      mass                15.9994
  #
      l_hartree           8
  #
      cut_pot             4.0  2.0  1.0
      basis_dep_cutoff    0.d0
  #
      radial_base         36 7.0
      radial_multiplier   2
       angular_grids specified
        division   0.4087  110
        division   0.5181  194
        division   0.6184  302
        division   0.7315  434
        division   0.7934  590
        #division   0.9656  770
        #division   1.4041  974
        #outer_grid 974
        outer_grid 590
  #
  #  Definition of "minimal" basis
  #
  ################################################################################
  #     valence basis states
      valence      2  s   2.
      valence      2  p   4.
  #     ion occupancy
      ion_occ      2  s   1.
      ion_occ      2  p   3.
  ################################################################################
  #
  #  Suggested additional basis functions. For production calculations,
  #  uncomment them one after another (the most important basis functions are
  #  listed first).
  #
  #  Basis constructed for dimers: 0.5 A, 0.7 A, 1.0 A, 1.5 A, 2.5 A
  #
  ################################################################################
  # The default minimal basis should not be included
  include_min_basis .false.
  # Use spherical functions?
  pure_gauss .true.
  # O def2-QZVP
  gaussian 0 8
 116506.4690800              0.40383857939E-04
  17504.3497240              0.31255139004E-03
   3993.4513230              0.16341473495E-02
   1133.0063186              0.68283224757E-02
    369.99569594             0.24124410221E-01
    133.62074349             0.72730206154E-01
     52.035643649            0.17934429892
     21.461939313            0.33059588895
  gaussian 0 2
     89.835051252            0.96468652996E-01
     26.428010844            0.94117481120
  gaussian 0 1 9.2822824649
  gaussian 0 1 4.0947728533
  gaussian 0 1 1.3255349078
  gaussian 0 1 0.51877230787
  gaussian 0 1 0.19772676454
  gaussian 1 5
    191.15255810             0.25115697705E-02
     45.233356739            0.20039240864E-01
     14.353465922            0.93609064762E-01
      5.2422371832           0.30618127124
      2.0792418599           0.67810501439
  gaussian 1 1 0.84282371424
  gaussian 1 1 0.33617694891
  gaussian 1 1 0.12863997974
  gaussian 2 1 3.77500000
  gaussian 2 1 1.30000000
  gaussian 2 1 0.44400000
  gaussian 3 1 2.66600000
  gaussian 3 1 0.85900000
  gaussian 4 1 1.84600000
  
  
  -----------------------------------------------------------------------
  Completed first pass over input file control.in .
  -----------------------------------------------------------------------
  
  
  -----------------------------------------------------------------------
  Parsing geometry.in (first pass over file, find array dimensions only).
  The contents of geometry.in will be repeated verbatim below
  unless switched off by setting 'verbatim_writeout .false.' .
  in the first line of geometry.in .
  -----------------------------------------------------------------------
  
  atom  0.0000 0.0000 0.0000 O
  atom  1.0869 0.0000 0.6600 O
  atom -1.0869 0.0000 0.6600 O
  
  -----------------------------------------------------------------------
  Completed first pass over input file geometry.in .
  -----------------------------------------------------------------------
  

  Basic array size parameters:
  | Number of species                 :        1
  | Number of atoms                   :        3
  | Max. basis fn. angular momentum   :        4
  | Max. atomic/ionic basis occupied n:        2
  | Max. number of basis fn. types    :        1
  | Max. radial fns per species/type  :       24
  | Max. logarithmic grid size        :     1301
  | Max. radial integration grid size :       73
  | Max. angular integration grid size:      590
  | Max. angular grid division number :        8
  | Radial grid for Hartree potential :     1301
  | Number of spin channels           :        1

------------------------------------------------------------
          Reading file control.in.
------------------------------------------------------------
  XC: Using hybrid-PBE0 functionals.
  GW quasiparticle calculation of excited states will be started after the DFT/HF calculation.
  hybrid_xc_coeff: Mixing coefficient for hybrid-functional exact exchange modified to         0.25000000 .
  * WARNING: This change modifies the chosen exchange-correlation functional (keyword 'xc')
  * from its literature definition. Be sure to NEVER include such a line in any default control.in files!
  Spin treatment: No spin polarisation.
  Using Pade approximation for analytical continuation.
  Number of fitting parameters for analytical continuation :    128
  Number of frequency points used for the self-energy calculation:    600
  Contour deformation in GW for the levels:      3     to      23
  Broadening parameter eta:       0.004000
  Lower limit of the eigenstates for the self-energy correction :      1
  Upper limit of the eigenstates for the self-energy correction :    500
  Non-relativistic treatment of kinetic energy.
  override_relativity: Explicitly overriding any built-in relativity checks.
  If you use this flag, you should really know what you are doing.
  Partition function in integrals calculations: rho / r^2
  Spectral function will be calculated from:   -20.000   to        0.000  eV
  Occupation type: Gaussian broadening, width =   0.100000E-05 eV.
  Using pulay charge density mixing.
  Pulay mixing - number of memorized iterations:   10
  Charge density mixing - mixing parameter:     0.2000
  Convergence accuracy of self-consistent charge density:  0.1000E-04
  Convergence accuracy of sum of eigenvalues:  0.1000E-04
  Convergence accuracy of total energy:  0.1000E-04
  Maximum number of s.-c. iterations  :   400
  Threshold for auxiliary basis singularities:  0.1000E-04
  Kohn-Sham eigenvalues and eigenfunctions calculated by LAPACK via ELSI.
  Number of empty states per atom:    25000
  override_illconditioning: Explicitly overriding any built-in checks for an ill-conditioned overlap matrix.
  *** WARNING: If you use this flag, you should really know what you are doing.
  *** DO NOT keep this flag set by default in all your control.in files.

  Reading configuration options for species O                   .
  | Found nuclear charge :   8.0000
  | Found atomic mass :    15.999400000000000      amu
  | Found l_max for Hartree potential  :   8
  | Found cutoff potl. onset [A], width [A], scale factor :    4.00000    2.00000    1.00000
  | Threshold for basis-dependent cutoff potential is   0.000000E+00
  | Found data for basic radial integration grid :    36 points, outermost radius =    7.000 A
  | Found multiplier for basic radial grid :   2
  | Found angular grid specification: user-specified.
  | Specified grid contains     6 separate shells.
  | Check grid settings after all constraints further below.
  | Found free-atom valence shell :  2 s   2.000
  | Found free-atom valence shell :  2 p   4.000
  | No ionic wave fns used. Skipping ion_occ.
  | No ionic wave fns used. Skipping ion_occ.
  | Found request to include minimal basis fns. :     F
  | Found request to include pure gaussian fns. :     T
  | Found contracted cartesian Gaussian basis function :  L = 0 ,   8 elementary Gaussians:
  |   alpha = 0.116506E+06 weight = 0.403839E-04
  |   alpha = 0.175043E+05 weight = 0.312551E-03
  |   alpha = 0.399345E+04 weight = 0.163415E-02
  |   alpha = 0.113301E+04 weight = 0.682832E-02
  |   alpha = 0.369996E+03 weight = 0.241244E-01
  |   alpha = 0.133621E+03 weight = 0.727302E-01
  |   alpha = 0.520356E+02 weight = 0.179344E+00
  |   alpha = 0.214619E+02 weight = 0.330596E+00
  |   In terms of angular momentum, this radial function adds: 
  |     1 s-type basis function
  | Found contracted cartesian Gaussian basis function :  L = 0 ,   2 elementary Gaussians:
  |   alpha = 0.898351E+02 weight = 0.964687E-01
  |   alpha = 0.264280E+02 weight = 0.941175E+00
  |   In terms of angular momentum, this radial function adds: 
  |     1 s-type basis function
  | Found primitive cartesian Gaussian basis function :  0 0.928228E+01
  |   In terms of angular momentum, this radial function adds: 
  |     1 s-type basis function
  | Found primitive cartesian Gaussian basis function :  0 0.409477E+01
  |   In terms of angular momentum, this radial function adds: 
  |     1 s-type basis function
  | Found primitive cartesian Gaussian basis function :  0 0.132553E+01
  |   In terms of angular momentum, this radial function adds: 
  |     1 s-type basis function
  | Found primitive cartesian Gaussian basis function :  0 0.518772E+00
  |   In terms of angular momentum, this radial function adds: 
  |     1 s-type basis function
  | Found primitive cartesian Gaussian basis function :  0 0.197727E+00
  |   In terms of angular momentum, this radial function adds: 
  |     1 s-type basis function
  | Found contracted cartesian Gaussian basis function :  L = 1 ,   5 elementary Gaussians:
  |   alpha = 0.191153E+03 weight = 0.251157E-02
  |   alpha = 0.452334E+02 weight = 0.200392E-01
  |   alpha = 0.143535E+02 weight = 0.936091E-01
  |   alpha = 0.524224E+01 weight = 0.306181E+00
  |   alpha = 0.207924E+01 weight = 0.678105E+00
  |   In terms of angular momentum, this radial function adds: 
  |     3 p-type basis functions
  | Found primitive cartesian Gaussian basis function :  1 0.842824E+00
  |   In terms of angular momentum, this radial function adds: 
  |     3 p-type basis functions
  | Found primitive cartesian Gaussian basis function :  1 0.336177E+00
  |   In terms of angular momentum, this radial function adds: 
  |     3 p-type basis functions
  | Found primitive cartesian Gaussian basis function :  1 0.128640E+00
  |   In terms of angular momentum, this radial function adds: 
  |     3 p-type basis functions
  | Found primitive cartesian Gaussian basis function :  2 0.377500E+01
  |   In terms of angular momentum, this radial function adds: 
  |     5 d-type basis functions
  | Found primitive cartesian Gaussian basis function :  2 0.130000E+01
  |   In terms of angular momentum, this radial function adds: 
  |     5 d-type basis functions
  | Found primitive cartesian Gaussian basis function :  2 0.444000E+00
  |   In terms of angular momentum, this radial function adds: 
  |     5 d-type basis functions
  | Found primitive cartesian Gaussian basis function :  3 0.266600E+01
  |   In terms of angular momentum, this radial function adds: 
  |     7 f-type basis functions
  | Found primitive cartesian Gaussian basis function :  3 0.859000E+00
  |   In terms of angular momentum, this radial function adds: 
  |     7 f-type basis functions
  | Found primitive cartesian Gaussian basis function :  4 0.184600E+01
  |   In terms of angular momentum, this radial function adds: 
  |     9 g-type basis functions
  Species O                   : Missing cutoff potential type.
  Defaulting to exp(1/x)/(1-x)^2 type cutoff potential.
  Species O : No 'logarithmic' tag. Using default grid for free atom:
  | Default logarithmic grid data [bohr] : 0.1000E-03 0.1000E+03 0.1012E+01
  Species O : On-site basis accuracy parameter (for Gram-Schmidt orthonormalisation) not specified.
  Using default value basis_acc =  0.1000000E-03.
  Species O                   : Using default innermost maximum threshold i_radial=  2 for radial functions.
  Species O                   : Default cutoff onset for free atom density etc. is infinite
  since the product basis is used (hybrid functionals, Hartree-Fock, GW etc.).
  Species O                   : Basic radial grid will be enhanced according to radial_multiplier =   2, to contain    73 grid points.

  Finished reading input file 'control.in'.

------------------------------------------------------------


------------------------------------------------------------
          Reading geometry description geometry.in.
------------------------------------------------------------
  | The smallest distance between any two atoms is         1.27159412 AA.
  | The first atom of this pair is atom number                      1 .
  | The second atom of this pair is atom number                     2 .
  Input structure read successfully.
  The structure contains        3 atoms,  and a total of         24.000 electrons.

  Input geometry:
  | No unit cell requested.
  | Atomic structure:
  |       Atom                x [A]            y [A]            z [A]
  |    1: Species O             0.00000000        0.00000000        0.00000000
  |    2: Species O             1.08690000        0.00000000        0.66000000
  |    3: Species O            -1.08690000        0.00000000        0.66000000


  Finished reading input file 'geometry.in'.



  Consistency checks for stacksize environment parameter are next.

  | Maximum stacksize for task 0: unlimited
  | Maximum stacksize for task 1: unlimited
  | Maximum stacksize for task 2: unlimited
  | Maximum stacksize for task 3: unlimited
  | Maximum stacksize for task 4: unlimited
  | Maximum stacksize for task 5: unlimited
  | Maximum stacksize for task 6: unlimited
  | Maximum stacksize for task 7: unlimited
  | Maximum stacksize for task 8: unlimited
  | Maximum stacksize for task 9: unlimited
  | Maximum stacksize for task 10: unlimited
  | Maximum stacksize for task 11: unlimited
  | Maximum stacksize for task 12: unlimited
  | Maximum stacksize for task 13: unlimited
  | Maximum stacksize for task 14: unlimited
  | Maximum stacksize for task 15: unlimited
  | Maximum stacksize for task 16: unlimited
  | Maximum stacksize for task 17: unlimited
  | Maximum stacksize for task 18: unlimited
  | Maximum stacksize for task 19: unlimited
  | Maximum stacksize for task 20: unlimited
  | Maximum stacksize for task 21: unlimited
  | Maximum stacksize for task 22: unlimited
  | Maximum stacksize for task 23: unlimited
  | Maximum stacksize for task 24: unlimited
  | Maximum stacksize for task 25: unlimited
  | Maximum stacksize for task 26: unlimited
  | Maximum stacksize for task 27: unlimited
  | Maximum stacksize for task 28: unlimited
  | Maximum stacksize for task 29: unlimited
  | Maximum stacksize for task 30: unlimited
  | Maximum stacksize for task 31: unlimited
  | Maximum stacksize for task 32: unlimited
  | Maximum stacksize for task 33: unlimited
  | Maximum stacksize for task 34: unlimited
  | Maximum stacksize for task 35: unlimited
  | Maximum stacksize for task 36: unlimited
  | Maximum stacksize for task 37: unlimited
  | Maximum stacksize for task 38: unlimited
  | Maximum stacksize for task 39: unlimited
  | Maximum stacksize for task 40: unlimited
  | Maximum stacksize for task 41: unlimited
  | Maximum stacksize for task 42: unlimited
  | Maximum stacksize for task 43: unlimited
  | Maximum stacksize for task 44: unlimited
  | Maximum stacksize for task 45: unlimited
  | Maximum stacksize for task 46: unlimited
  | Maximum stacksize for task 47: unlimited
  | Maximum stacksize for task 48: unlimited
  | Maximum stacksize for task 49: unlimited
  | Maximum stacksize for task 50: unlimited
  | Maximum stacksize for task 51: unlimited
  | Maximum stacksize for task 52: unlimited
  | Maximum stacksize for task 53: unlimited
  | Maximum stacksize for task 54: unlimited
  | Maximum stacksize for task 55: unlimited
  | Maximum stacksize for task 56: unlimited
  | Maximum stacksize for task 57: unlimited
  | Maximum stacksize for task 58: unlimited
  | Maximum stacksize for task 59: unlimited
  | Maximum stacksize for task 60: unlimited
  | Maximum stacksize for task 61: unlimited
  | Maximum stacksize for task 62: unlimited
  | Maximum stacksize for task 63: unlimited
  | Maximum stacksize for task 64: unlimited
  | Maximum stacksize for task 65: unlimited
  | Maximum stacksize for task 66: unlimited
  | Maximum stacksize for task 67: unlimited
  | Maximum stacksize for task 68: unlimited
  | Maximum stacksize for task 69: unlimited
  | Maximum stacksize for task 70: unlimited
  | Maximum stacksize for task 71: unlimited
  | Maximum stacksize for task 72: unlimited
  | Maximum stacksize for task 73: unlimited
  | Maximum stacksize for task 74: unlimited
  | Maximum stacksize for task 75: unlimited
  | Maximum stacksize for task 76: unlimited
  | Maximum stacksize for task 77: unlimited
  | Maximum stacksize for task 78: unlimited
  | Maximum stacksize for task 79: unlimited
  | Maximum stacksize for task 80: unlimited
  | Maximum stacksize for task 81: unlimited
  | Maximum stacksize for task 82: unlimited
  | Maximum stacksize for task 83: unlimited
  | Maximum stacksize for task 84: unlimited
  | Maximum stacksize for task 85: unlimited
  | Maximum stacksize for task 86: unlimited
  | Maximum stacksize for task 87: unlimited
  | Maximum stacksize for task 88: unlimited
  | Maximum stacksize for task 89: unlimited
  | Maximum stacksize for task 90: unlimited
  | Maximum stacksize for task 91: unlimited
  | Maximum stacksize for task 92: unlimited
  | Maximum stacksize for task 93: unlimited
  | Maximum stacksize for task 94: unlimited
  | Maximum stacksize for task 95: unlimited
  | Maximum stacksize for task 96: unlimited
  | Maximum stacksize for task 97: unlimited
  | Maximum stacksize for task 98: unlimited
  | Maximum stacksize for task 99: unlimited
  | Maximum stacksize for task 100: unlimited
  | Maximum stacksize for task 101: unlimited
  | Maximum stacksize for task 102: unlimited
  | Maximum stacksize for task 103: unlimited
  | Maximum stacksize for task 104: unlimited
  | Maximum stacksize for task 105: unlimited
  | Maximum stacksize for task 106: unlimited
  | Maximum stacksize for task 107: unlimited
  | Maximum stacksize for task 108: unlimited
  | Maximum stacksize for task 109: unlimited
  | Maximum stacksize for task 110: unlimited
  | Maximum stacksize for task 111: unlimited
  | Maximum stacksize for task 112: unlimited
  | Maximum stacksize for task 113: unlimited
  | Maximum stacksize for task 114: unlimited
  | Maximum stacksize for task 115: unlimited
  | Maximum stacksize for task 116: unlimited
  | Maximum stacksize for task 117: unlimited
  | Maximum stacksize for task 118: unlimited
  | Maximum stacksize for task 119: unlimited
  | Maximum stacksize for task 120: unlimited
  | Maximum stacksize for task 121: unlimited
  | Maximum stacksize for task 122: unlimited
  | Maximum stacksize for task 123: unlimited
  | Maximum stacksize for task 124: unlimited
  | Maximum stacksize for task 125: unlimited
  | Maximum stacksize for task 126: unlimited
  | Maximum stacksize for task 127: unlimited
  | Current stacksize for task 0: unlimited
  | Current stacksize for task 1: unlimited
  | Current stacksize for task 2: unlimited
  | Current stacksize for task 3: unlimited
  | Current stacksize for task 4: unlimited
  | Current stacksize for task 5: unlimited
  | Current stacksize for task 6: unlimited
  | Current stacksize for task 7: unlimited
  | Current stacksize for task 8: unlimited
  | Current stacksize for task 9: unlimited
  | Current stacksize for task 10: unlimited
  | Current stacksize for task 11: unlimited
  | Current stacksize for task 12: unlimited
  | Current stacksize for task 13: unlimited
  | Current stacksize for task 14: unlimited
  | Current stacksize for task 15: unlimited
  | Current stacksize for task 16: unlimited
  | Current stacksize for task 17: unlimited
  | Current stacksize for task 18: unlimited
  | Current stacksize for task 19: unlimited
  | Current stacksize for task 20: unlimited
  | Current stacksize for task 21: unlimited
  | Current stacksize for task 22: unlimited
  | Current stacksize for task 23: unlimited
  | Current stacksize for task 24: unlimited
  | Current stacksize for task 25: unlimited
  | Current stacksize for task 26: unlimited
  | Current stacksize for task 27: unlimited
  | Current stacksize for task 28: unlimited
  | Current stacksize for task 29: unlimited
  | Current stacksize for task 30: unlimited
  | Current stacksize for task 31: unlimited
  | Current stacksize for task 32: unlimited
  | Current stacksize for task 33: unlimited
  | Current stacksize for task 34: unlimited
  | Current stacksize for task 35: unlimited
  | Current stacksize for task 36: unlimited
  | Current stacksize for task 37: unlimited
  | Current stacksize for task 38: unlimited
  | Current stacksize for task 39: unlimited
  | Current stacksize for task 40: unlimited
  | Current stacksize for task 41: unlimited
  | Current stacksize for task 42: unlimited
  | Current stacksize for task 43: unlimited
  | Current stacksize for task 44: unlimited
  | Current stacksize for task 45: unlimited
  | Current stacksize for task 46: unlimited
  | Current stacksize for task 47: unlimited
  | Current stacksize for task 48: unlimited
  | Current stacksize for task 49: unlimited
  | Current stacksize for task 50: unlimited
  | Current stacksize for task 51: unlimited
  | Current stacksize for task 52: unlimited
  | Current stacksize for task 53: unlimited
  | Current stacksize for task 54: unlimited
  | Current stacksize for task 55: unlimited
  | Current stacksize for task 56: unlimited
  | Current stacksize for task 57: unlimited
  | Current stacksize for task 58: unlimited
  | Current stacksize for task 59: unlimited
  | Current stacksize for task 60: unlimited
  | Current stacksize for task 61: unlimited
  | Current stacksize for task 62: unlimited
  | Current stacksize for task 63: unlimited
  | Current stacksize for task 64: unlimited
  | Current stacksize for task 65: unlimited
  | Current stacksize for task 66: unlimited
  | Current stacksize for task 67: unlimited
  | Current stacksize for task 68: unlimited
  | Current stacksize for task 69: unlimited
  | Current stacksize for task 70: unlimited
  | Current stacksize for task 71: unlimited
  | Current stacksize for task 72: unlimited
  | Current stacksize for task 73: unlimited
  | Current stacksize for task 74: unlimited
  | Current stacksize for task 75: unlimited
  | Current stacksize for task 76: unlimited
  | Current stacksize for task 77: unlimited
  | Current stacksize for task 78: unlimited
  | Current stacksize for task 79: unlimited
  | Current stacksize for task 80: unlimited
  | Current stacksize for task 81: unlimited
  | Current stacksize for task 82: unlimited
  | Current stacksize for task 83: unlimited
  | Current stacksize for task 84: unlimited
  | Current stacksize for task 85: unlimited
  | Current stacksize for task 86: unlimited
  | Current stacksize for task 87: unlimited
  | Current stacksize for task 88: unlimited
  | Current stacksize for task 89: unlimited
  | Current stacksize for task 90: unlimited
  | Current stacksize for task 91: unlimited
  | Current stacksize for task 92: unlimited
  | Current stacksize for task 93: unlimited
  | Current stacksize for task 94: unlimited
  | Current stacksize for task 95: unlimited
  | Current stacksize for task 96: unlimited
  | Current stacksize for task 97: unlimited
  | Current stacksize for task 98: unlimited
  | Current stacksize for task 99: unlimited
  | Current stacksize for task 100: unlimited
  | Current stacksize for task 101: unlimited
  | Current stacksize for task 102: unlimited
  | Current stacksize for task 103: unlimited
  | Current stacksize for task 104: unlimited
  | Current stacksize for task 105: unlimited
  | Current stacksize for task 106: unlimited
  | Current stacksize for task 107: unlimited
  | Current stacksize for task 108: unlimited
  | Current stacksize for task 109: unlimited
  | Current stacksize for task 110: unlimited
  | Current stacksize for task 111: unlimited
  | Current stacksize for task 112: unlimited
  | Current stacksize for task 113: unlimited
  | Current stacksize for task 114: unlimited
  | Current stacksize for task 115: unlimited
  | Current stacksize for task 116: unlimited
  | Current stacksize for task 117: unlimited
  | Current stacksize for task 118: unlimited
  | Current stacksize for task 119: unlimited
  | Current stacksize for task 120: unlimited
  | Current stacksize for task 121: unlimited
  | Current stacksize for task 122: unlimited
  | Current stacksize for task 123: unlimited
  | Current stacksize for task 124: unlimited
  | Current stacksize for task 125: unlimited
  | Current stacksize for task 126: unlimited
  | Current stacksize for task 127: unlimited

  Consistency checks for the contents of control.in are next.

  MPI_IN_PLACE appears to work with this MPI implementation.
  | Keeping use_mpi_in_place .true. (see manual).
  Explicit treatment of the Coulomb operator is needed, but the RI method is not specified.
  Coulomb operator: Defaulting to 'RI-V' resolution of identity - RI_type = V
  Species O: Using default value for prodbas_acc =   1.000000E-02.
  Species O: Using default value max_l_prodbas =     5.
 * Species O: Specified min. number of angular integration points is   110
 * The angular momenta for this species require   194 for RI_type 'V'. Increasing angular_min to   194.
 * Species O: Grid shell     1 contains only   110 angular integration points.
 * Increasing to angular_min =   194 integration points.
 * This change is related to the three-center integrals used in RI_method 'V'.
  Target number of points in a grid batch is not set. Defaulting to  100
  Method for grid partitioning is not set. Defaulting to parallel hash+maxmin partitioning.
  Batch size limit is not set. Defaulting to    200
  By default, will store active basis functions for each batch.
  If in need of memory, prune_basis_once .false. can be used to disable this option.
  communication_type for Hartree potential was not specified.
  Defaulting to calc_hartree .
  Pulay mixer: Number of initial linear mixing iterations not set.
  Defaulting to    0 iterations.
  Work space size for distributed Hartree potential not set.
  Defaulting to   0.200000E+03 MB.
  Algorithm-dependent basis array size parameters:
  | n_max_pulay                         :       10
  Presetting      1001 iterations before the initial mixing cycle
  is restarted anyway using the sc_init_iter criterion / keyword.
  Presetting a factor      1.000 between actual scf density residual
  and density convergence criterion sc_accuracy_rho below which sc_init_iter
  takes no effect.
  Calculation of forces was not defined in control.in. No forces will be calculated.
  Geometry relaxation not requested: no relaxation will be performed.
  No accuracy limit for integral partition fn. given. Defaulting to  0.1000E-14.
  No threshold value for u(r) in integrations given. Defaulting to  0.1000E-05.
  No accuracy for occupation numbers given. Defaulting to  0.1000E-12.
  No threshold value for occupation numbers given. Defaulting to  0.0000E+00.
  No accuracy for fermi level given. Defaulting to  0.1000E-19.
  Maximum # of iterations to find E_F not set. Defaulting to  200.
  Will not use alltoall communication since running on < 1024 CPUs.
  Threshold for basis singularities not set.
  Default threshold for basis singularities:  0.1000E-04
  Partitioning for Hartree potential was not defined. Using partition_type for integrals.
  | Reporting present value of keyword multip_moments_threshold  :       0.10000000E-09
  | This value may affect high angular momentum components of the Hartree potential in periodic systems.
  * Doing correlated calculations, so all empty single-particle states will be included.
  No q(lm)/r^(l+1) cutoff set for long-range Hartree potential.
  | Using default value of  0.100000E-09 .
  | Verify using the multipole_threshold keyword.
  Defaulting to new monopole extrapolation.
  Density update method: density matrix based density update selected.
  Charge integration errors on the 3D integration grid will be compensated
  by explicit normalization and distribution of residual charges.
  Use the "compensate_multipole_errors" flag to change this behaviour.
  Default to 1D ("use_logsbt") integrations for auxiliary 2-center integrals.
  Default onset of logarithmic r-grid for SBT is -38.000000000000
  Default onset of logarithmic k-grid for SBT is -25.000000000000
  Default range of logarithmic r- and k-grid for SBT is  45.000000000000
  Default number of logarithmic r- and k-grid for SBT is   4096
  *** Contour Deformation: Only support 2D parallization. Switching.
  Set 'collect_eigenvectors' to be '.true.' for GW/RPA/MP2, SCREX/COHSEX cluster calculations
  Set 'collect_eigenvectors' to be '.true.' for qpe_calc (quasiparticle energy).
  Set 'collect_eigenvectors' to be '.true.' for KS_method lapack_fast and serial.

  Consistency checks for the contents of geometry.in are next.

  Number of empty states per atom not set in control.in .
  | Since you are using a method that relies on the unoccupied spectrum
  | (MP2,GW,RPA et al.), will use the full Hamiltonian size (see below)
  | as the max. possible number of states (occupied plus empty).

  Structure-dependent array size parameters: 
  | Maximum number of distinct radial functions  :       17
  | Maximum number of basis functions            :      171
  | Number of Kohn-Sham states (occupied + empty):      171
------------------------------------------------------------

------------------------------------------------------------
          Preparing all fixed parts of the calculation.
------------------------------------------------------------
  Determining machine precision:
     2.2250738585072014E-308
  Setting up grids for atomic and cluster calculations.

  Creating wave function, potential, and density for free atoms.
  Runtime choices for atomic solver:
  | atomic solver xc        : PBE
  | compute density gradient: 1
  | compute kinetic density : F

  Species: O

  List of occupied orbitals and eigenvalues:
    n    l              occ      energy [Ha]    energy [eV]
    1    0           2.0000       -18.898644      -514.2583
    2    0           2.0000        -0.878848       -23.9147
    2    1           4.0000        -0.332128        -9.0377


  Adding cutoff potential to free-atom effective potential.
  Creating fixed part of basis set: Ionic, confined, hydrogenic.

  O                    Gaussian:

  List of cartesian Gaussian basis orbitals: 
    L    l
    0    0
    0    0
    0    0
    0    0
    0    0
    0    0
    0    0
    1    1
    1    1
    1    1
    1    1
    2    2
    2    2
    2    2
    3    3
    3    3
    4    4

  Creating atomic-like basis functions for current effective potential.
  Assembling full basis from fixed parts.
  | Species O : gaussian orbital   0 s accepted.
  | Species O : gaussian orbital   0 s accepted.
  | Species O : gaussian orbital   0 s accepted.
  | Species O : gaussian orbital   0 s accepted.
  | Species O : gaussian orbital   0 s accepted.
  | Species O : gaussian orbital   0 s accepted.
  | Species O : gaussian orbital   0 s accepted.
  | Species O : gaussian orbital   1 p accepted.
  | Species O : gaussian orbital   1 p accepted.
  | Species O : gaussian orbital   1 p accepted.
  | Species O : gaussian orbital   1 p accepted.
  | Species O : gaussian orbital   2 d accepted.
  | Species O : gaussian orbital   2 d accepted.
  | Species O : gaussian orbital   2 d accepted.
  | Species O : gaussian orbital   3 f accepted.
  | Species O : gaussian orbital   3 f accepted.
  | Species O : gaussian orbital   4 g accepted.

  Basis size parameters after reduction:
  | Total number of radial functions:       17
  | Total number of basis functions :      171

  Per-task memory consumption for arrays in subroutine allocate_ext:
  |           4.251124MB.
  Testing on-site integration grid accuracy.
  |  Species  Function  <phi|h_atom|phi> (log., in eV)  <phi|h_atom|phi> (rad., in eV)
           1        1               -362.5768878964               -361.9064466209 ***
           1        2               5562.5547625713               5575.7930874751 ***
           1        3               1025.0233784559               1025.9245856613 ***
           1        4                982.4978511341                983.5281042290 ***
           1        5                433.1899307944                433.5654311331 ***
           1        6                211.6154267980                211.7639894228 ***
           1        7                 95.6225149986                 95.6775254236 ***
           1        8                 18.1342168000                 18.1342171007
           1        9                 65.5300295478                 65.5300296997
           1       10                 49.0580174448                 49.0580169452
           1       11                 26.6733000437                 26.6732994427
           1       12                218.9177453526                218.9177453781
           1       13                147.8581850346                147.8581828102
           1       14                 71.7831007132                 71.7830993551
           1       15                249.7504167360                249.7504159711
           1       16                120.9441017008                120.9441015070
           1       17                235.2477364771                235.2477348478
 * Note: Onsite integrals marked "***" above are less accurate than
 * onsite_accuracy_threshold =    0.03000 eV. Usually, this is harmless.
 * However, one integral did have a negative value. This integral could be important.
 * When in doubt, tighten the "radial" and/or "radial_multiplier" flags to check.

  Preparing densities etc. for the partition functions (integrals / Hartree potential).

  Preparations completed.
  max(cpu_time)          :      0.110 s.
  Wall clock time (cpu1) :      0.110 s.
------------------------------------------------------------

  Initializing index lists of integration centers etc. from given atomic structure:
  | Number of centers in hartree potential         :         3
  | Number of centers in hartree multipole         :         3
  | Number of centers in electron density summation:         3
  | Number of centers in basis integrals           :         3
  | Number of centers in integrals                 :         3
  | Number of centers in hamiltonian               :         3

------------------------------------------------------------
          Begin self-consistency loop: Initialization.

          Date     :  20240515, Time     :  123124.894
------------------------------------------------------------
  * Using 128 tasks for Scalapack Eigenvalue solver.
  Detailed listing of tasks and assigned k-points:
  (for non-periodic systems, the "k-point" denotes an internal label only)
   Task     0 k-point     1 on n2cn0395.ab2021.local
   Task     1 k-point     1 on n2cn0395.ab2021.local
   Task     2 k-point     1 on n2cn0395.ab2021.local
   Task     3 k-point     1 on n2cn0395.ab2021.local
   Task     4 k-point     1 on n2cn0395.ab2021.local
   Task     5 k-point     1 on n2cn0395.ab2021.local
   Task     6 k-point     1 on n2cn0395.ab2021.local
   Task     7 k-point     1 on n2cn0395.ab2021.local
   Task     8 k-point     1 on n2cn0395.ab2021.local
   Task     9 k-point     1 on n2cn0395.ab2021.local
   Task    10 k-point     1 on n2cn0395.ab2021.local
   Task    11 k-point     1 on n2cn0395.ab2021.local
   Task    12 k-point     1 on n2cn0395.ab2021.local
   Task    13 k-point     1 on n2cn0395.ab2021.local
   Task    14 k-point     1 on n2cn0395.ab2021.local
   Task    15 k-point     1 on n2cn0395.ab2021.local
   Task    16 k-point     1 on n2cn0395.ab2021.local
   Task    17 k-point     1 on n2cn0395.ab2021.local
   Task    18 k-point     1 on n2cn0395.ab2021.local
   Task    19 k-point     1 on n2cn0395.ab2021.local
   Task    20 k-point     1 on n2cn0395.ab2021.local
   Task    21 k-point     1 on n2cn0395.ab2021.local
   Task    22 k-point     1 on n2cn0395.ab2021.local
   Task    23 k-point     1 on n2cn0395.ab2021.local
   Task    24 k-point     1 on n2cn0395.ab2021.local
   Task    25 k-point     1 on n2cn0395.ab2021.local
   Task    26 k-point     1 on n2cn0395.ab2021.local
   Task    27 k-point     1 on n2cn0395.ab2021.local
   Task    28 k-point     1 on n2cn0395.ab2021.local
   Task    29 k-point     1 on n2cn0395.ab2021.local
   Task    30 k-point     1 on n2cn0395.ab2021.local
   Task    31 k-point     1 on n2cn0395.ab2021.local
   Task    32 k-point     1 on n2cn0395.ab2021.local
   Task    33 k-point     1 on n2cn0395.ab2021.local
   Task    34 k-point     1 on n2cn0395.ab2021.local
   Task    35 k-point     1 on n2cn0395.ab2021.local
   Task    36 k-point     1 on n2cn0395.ab2021.local
   Task    37 k-point     1 on n2cn0395.ab2021.local
   Task    38 k-point     1 on n2cn0395.ab2021.local
   Task    39 k-point     1 on n2cn0395.ab2021.local
   Task    40 k-point     1 on n2cn0395.ab2021.local
   Task    41 k-point     1 on n2cn0395.ab2021.local
   Task    42 k-point     1 on n2cn0395.ab2021.local
   Task    43 k-point     1 on n2cn0395.ab2021.local
   Task    44 k-point     1 on n2cn0395.ab2021.local
   Task    45 k-point     1 on n2cn0395.ab2021.local
   Task    46 k-point     1 on n2cn0395.ab2021.local
   Task    47 k-point     1 on n2cn0395.ab2021.local
   Task    48 k-point     1 on n2cn0395.ab2021.local
   Task    49 k-point     1 on n2cn0395.ab2021.local
   Task    50 k-point     1 on n2cn0395.ab2021.local
   Task    51 k-point     1 on n2cn0395.ab2021.local
   Task    52 k-point     1 on n2cn0395.ab2021.local
   Task    53 k-point     1 on n2cn0395.ab2021.local
   Task    54 k-point     1 on n2cn0395.ab2021.local
   Task    55 k-point     1 on n2cn0395.ab2021.local
   Task    56 k-point     1 on n2cn0395.ab2021.local
   Task    57 k-point     1 on n2cn0395.ab2021.local
   Task    58 k-point     1 on n2cn0395.ab2021.local
   Task    59 k-point     1 on n2cn0395.ab2021.local
   Task    60 k-point     1 on n2cn0395.ab2021.local
   Task    61 k-point     1 on n2cn0395.ab2021.local
   Task    62 k-point     1 on n2cn0395.ab2021.local
   Task    63 k-point     1 on n2cn0395.ab2021.local
   Task    64 k-point     1 on n2cn0395.ab2021.local
   Task    65 k-point     1 on n2cn0395.ab2021.local
   Task    66 k-point     1 on n2cn0395.ab2021.local
   Task    67 k-point     1 on n2cn0395.ab2021.local
   Task    68 k-point     1 on n2cn0395.ab2021.local
   Task    69 k-point     1 on n2cn0395.ab2021.local
   Task    70 k-point     1 on n2cn0395.ab2021.local
   Task    71 k-point     1 on n2cn0395.ab2021.local
   Task    72 k-point     1 on n2cn0395.ab2021.local
   Task    73 k-point     1 on n2cn0395.ab2021.local
   Task    74 k-point     1 on n2cn0395.ab2021.local
   Task    75 k-point     1 on n2cn0395.ab2021.local
   Task    76 k-point     1 on n2cn0395.ab2021.local
   Task    77 k-point     1 on n2cn0395.ab2021.local
   Task    78 k-point     1 on n2cn0395.ab2021.local
   Task    79 k-point     1 on n2cn0395.ab2021.local
   Task    80 k-point     1 on n2cn0395.ab2021.local
   Task    81 k-point     1 on n2cn0395.ab2021.local
   Task    82 k-point     1 on n2cn0395.ab2021.local
   Task    83 k-point     1 on n2cn0395.ab2021.local
   Task    84 k-point     1 on n2cn0395.ab2021.local
   Task    85 k-point     1 on n2cn0395.ab2021.local
   Task    86 k-point     1 on n2cn0395.ab2021.local
   Task    87 k-point     1 on n2cn0395.ab2021.local
   Task    88 k-point     1 on n2cn0395.ab2021.local
   Task    89 k-point     1 on n2cn0395.ab2021.local
   Task    90 k-point     1 on n2cn0395.ab2021.local
   Task    91 k-point     1 on n2cn0395.ab2021.local
   Task    92 k-point     1 on n2cn0395.ab2021.local
   Task    93 k-point     1 on n2cn0395.ab2021.local
   Task    94 k-point     1 on n2cn0395.ab2021.local
   Task    95 k-point     1 on n2cn0395.ab2021.local
   Task    96 k-point     1 on n2cn0395.ab2021.local
   Task    97 k-point     1 on n2cn0395.ab2021.local
   Task    98 k-point     1 on n2cn0395.ab2021.local
   Task    99 k-point     1 on n2cn0395.ab2021.local
   Task   100 k-point     1 on n2cn0395.ab2021.local
   Task   101 k-point     1 on n2cn0395.ab2021.local
   Task   102 k-point     1 on n2cn0395.ab2021.local
   Task   103 k-point     1 on n2cn0395.ab2021.local
   Task   104 k-point     1 on n2cn0395.ab2021.local
   Task   105 k-point     1 on n2cn0395.ab2021.local
   Task   106 k-point     1 on n2cn0395.ab2021.local
   Task   107 k-point     1 on n2cn0395.ab2021.local
   Task   108 k-point     1 on n2cn0395.ab2021.local
   Task   109 k-point     1 on n2cn0395.ab2021.local
   Task   110 k-point     1 on n2cn0395.ab2021.local
   Task   111 k-point     1 on n2cn0395.ab2021.local
   Task   112 k-point     1 on n2cn0395.ab2021.local
   Task   113 k-point     1 on n2cn0395.ab2021.local
   Task   114 k-point     1 on n2cn0395.ab2021.local
   Task   115 k-point     1 on n2cn0395.ab2021.local
   Task   116 k-point     1 on n2cn0395.ab2021.local
   Task   117 k-point     1 on n2cn0395.ab2021.local
   Task   118 k-point     1 on n2cn0395.ab2021.local
   Task   119 k-point     1 on n2cn0395.ab2021.local
   Task   120 k-point     1 on n2cn0395.ab2021.local
   Task   121 k-point     1 on n2cn0395.ab2021.local
   Task   122 k-point     1 on n2cn0395.ab2021.local
   Task   123 k-point     1 on n2cn0395.ab2021.local
   Task   124 k-point     1 on n2cn0395.ab2021.local
   Task   125 k-point     1 on n2cn0395.ab2021.local
   Task   126 k-point     1 on n2cn0395.ab2021.local
   Task   127 k-point     1 on n2cn0395.ab2021.local
  Tasks:   128 split into     16 X      8 BLACS grid
  Calculating block size based on n_basis =          171  max_nprow =           16  max_npcol =            8
  ScaLAPACK block size set to:            8
  Allocating        0.003 MB for ovlp
  Allocating        0.003 MB for ham
  Allocating        0.003 MB for eigenvec
  Required Scalapack workspace - INTEGER:         1263  REAL:          2137
  Partitioning the integration grid into batches with parallel hashing+maxmin method.
  | Number of batches:     1016
  | Maximal batch size:     197
  | Minimal batch size:       3
  | Average batch size:      85.825
  | Standard deviation of batch sizes:      34.505

  Integration load balanced across   128 MPI tasks.
  Work distribution over tasks is as follows:
  Task     0 has        654 integration points.
  Task     1 has        637 integration points.
  Task     2 has        758 integration points.
  Task     3 has        681 integration points.
  Task     4 has        639 integration points.
  Task     5 has        641 integration points.
  Task     6 has        738 integration points.
  Task     7 has        656 integration points.
  Task     8 has        674 integration points.
  Task     9 has        768 integration points.
  Task    10 has        636 integration points.
  Task    11 has        635 integration points.
  Task    12 has        651 integration points.
  Task    13 has        811 integration points.
  Task    14 has        681 integration points.
  Task    15 has        659 integration points.
  Task    16 has        633 integration points.
  Task    17 has        638 integration points.
  Task    18 has        770 integration points.
  Task    19 has        786 integration points.
  Task    20 has        755 integration points.
  Task    21 has        740 integration points.
  Task    22 has        633 integration points.
  Task    23 has        715 integration points.
  Task    24 has        749 integration points.
  Task    25 has        663 integration points.
  Task    26 has        637 integration points.
  Task    27 has        783 integration points.
  Task    28 has        684 integration points.
  Task    29 has        632 integration points.
  Task    30 has        680 integration points.
  Task    31 has        743 integration points.
  Task    32 has        660 integration points.
  Task    33 has        754 integration points.
  Task    34 has        644 integration points.
  Task    35 has        798 integration points.
  Task    36 has        691 integration points.
  Task    37 has        694 integration points.
  Task    38 has        711 integration points.
  Task    39 has        632 integration points.
  Task    40 has        698 integration points.
  Task    41 has        637 integration points.
  Task    42 has        691 integration points.
  Task    43 has        636 integration points.
  Task    44 has        657 integration points.
  Task    45 has        746 integration points.
  Task    46 has        658 integration points.
  Task    47 has        638 integration points.
  Task    48 has        662 integration points.
  Task    49 has        715 integration points.
  Task    50 has        659 integration points.
  Task    51 has        659 integration points.
  Task    52 has        639 integration points.
  Task    53 has        640 integration points.
  Task    54 has        749 integration points.
  Task    55 has        632 integration points.
  Task    56 has        717 integration points.
  Task    57 has        651 integration points.
  Task    58 has        646 integration points.
  Task    59 has        632 integration points.
  Task    60 has        652 integration points.
  Task    61 has        641 integration points.
  Task    62 has        683 integration points.
  Task    63 has        658 integration points.
  Task    64 has        651 integration points.
  Task    65 has        665 integration points.
  Task    66 has        654 integration points.
  Task    67 has        635 integration points.
  Task    68 has        652 integration points.
  Task    69 has        634 integration points.
  Task    70 has        636 integration points.
  Task    71 has        635 integration points.
  Task    72 has        658 integration points.
  Task    73 has        656 integration points.
  Task    74 has        746 integration points.
  Task    75 has        632 integration points.
  Task    76 has        686 integration points.
  Task    77 has        631 integration points.
  Task    78 has        651 integration points.
  Task    79 has        824 integration points.
  Task    80 has        748 integration points.
  Task    81 has        704 integration points.
  Task    82 has        642 integration points.
  Task    83 has        634 integration points.
  Task    84 has        638 integration points.
  Task    85 has        633 integration points.
  Task    86 has        693 integration points.
  Task    87 has        638 integration points.
  Task    88 has        763 integration points.
  Task    89 has        631 integration points.
  Task    90 has        749 integration points.
  Task    91 has        746 integration points.
  Task    92 has        653 integration points.
  Task    93 has        739 integration points.
  Task    94 has        646 integration points.
  Task    95 has        631 integration points.
  Task    96 has        700 integration points.
  Task    97 has        694 integration points.
  Task    98 has        810 integration points.
  Task    99 has        654 integration points.
  Task   100 has        646 integration points.
  Task   101 has        662 integration points.
  Task   102 has        703 integration points.
  Task   103 has        647 integration points.
  Task   104 has        758 integration points.
  Task   105 has        647 integration points.
  Task   106 has        751 integration points.
  Task   107 has        686 integration points.
  Task   108 has        662 integration points.
  Task   109 has        665 integration points.
  Task   110 has        765 integration points.
  Task   111 has        649 integration points.
  Task   112 has        640 integration points.
  Task   113 has        754 integration points.
  Task   114 has        656 integration points.
  Task   115 has        710 integration points.
  Task   116 has        632 integration points.
  Task   117 has        656 integration points.
  Task   118 has        697 integration points.
  Task   119 has        631 integration points.
  Task   120 has        632 integration points.
  Task   121 has        633 integration points.
  Task   122 has        642 integration points.
  Task   123 has        641 integration points.
  Task   124 has        717 integration points.
  Task   125 has        695 integration points.
  Task   126 has        791 integration points.
  Task   127 has        698 integration points.
  Initializing partition tables, free-atom densities, potentials, etc. across the integration grid (initialize_grid_storage).
  | Net number of integration points:    87198
  | of which are non-zero points    :    86954
  Renormalizing the initial density to the exact electron count on the 3D integration grid.
  | Initial density: Formal number of electrons (from input files) :      24.0000000000
  | Integrated number of electrons on 3D grid     :      23.9999998523
  | Charge integration error                      :      -0.0000001477
  | Normalization factor for density and gradient :       1.0000000062
  Renormalizing the free-atom superposition density to the exact electron count on the 3D integration grid.
  | Formal number of electrons (from input files) :      24.0000000000
  | Integrated number of electrons on 3D grid     :      23.9999998523
  | Charge integration error                      :      -0.0000001477
  | Normalization factor for density and gradient :       1.0000000062
  Obtaining max. number of non-zero basis functions in each batch (get_n_compute_maxes).
  | Maximal number of non-zero basis functions:      159 in task     0
  | Maximal number of non-zero basis functions:      167 in task     1
  | Maximal number of non-zero basis functions:      164 in task     2
  | Maximal number of non-zero basis functions:      164 in task     3
  | Maximal number of non-zero basis functions:      159 in task     4
  | Maximal number of non-zero basis functions:      162 in task     5
  | Maximal number of non-zero basis functions:      160 in task     6
  | Maximal number of non-zero basis functions:      163 in task     7
  | Maximal number of non-zero basis functions:      167 in task     8
  | Maximal number of non-zero basis functions:      166 in task     9
  | Maximal number of non-zero basis functions:      165 in task    10
  | Maximal number of non-zero basis functions:      164 in task    11
  | Maximal number of non-zero basis functions:      163 in task    12
  | Maximal number of non-zero basis functions:      164 in task    13
  | Maximal number of non-zero basis functions:      160 in task    14
  | Maximal number of non-zero basis functions:      164 in task    15
  | Maximal number of non-zero basis functions:      149 in task    16
  | Maximal number of non-zero basis functions:      163 in task    17
  | Maximal number of non-zero basis functions:      163 in task    18
  | Maximal number of non-zero basis functions:      149 in task    19
  | Maximal number of non-zero basis functions:      164 in task    20
  | Maximal number of non-zero basis functions:      159 in task    21
  | Maximal number of non-zero basis functions:      164 in task    22
  | Maximal number of non-zero basis functions:      164 in task    23
  | Maximal number of non-zero basis functions:      164 in task    24
  | Maximal number of non-zero basis functions:      165 in task    25
  | Maximal number of non-zero basis functions:      163 in task    26
  | Maximal number of non-zero basis functions:      164 in task    27
  | Maximal number of non-zero basis functions:      157 in task    28
  | Maximal number of non-zero basis functions:      164 in task    29
  | Maximal number of non-zero basis functions:      165 in task    30
  | Maximal number of non-zero basis functions:      163 in task    31
  | Maximal number of non-zero basis functions:      157 in task    32
  | Maximal number of non-zero basis functions:      165 in task    33
  | Maximal number of non-zero basis functions:      165 in task    34
  | Maximal number of non-zero basis functions:      163 in task    35
  | Maximal number of non-zero basis functions:      163 in task    36
  | Maximal number of non-zero basis functions:      165 in task    37
  | Maximal number of non-zero basis functions:      164 in task    38
  | Maximal number of non-zero basis functions:      165 in task    39
  | Maximal number of non-zero basis functions:      165 in task    40
  | Maximal number of non-zero basis functions:      165 in task    41
  | Maximal number of non-zero basis functions:      165 in task    42
  | Maximal number of non-zero basis functions:      165 in task    43
  | Maximal number of non-zero basis functions:      165 in task    44
  | Maximal number of non-zero basis functions:      165 in task    45
  | Maximal number of non-zero basis functions:      155 in task    46
  | Maximal number of non-zero basis functions:      164 in task    47
  | Maximal number of non-zero basis functions:      129 in task    48
  | Maximal number of non-zero basis functions:      163 in task    49
  | Maximal number of non-zero basis functions:      147 in task    50
  | Maximal number of non-zero basis functions:      163 in task    51
  | Maximal number of non-zero basis functions:      147 in task    52
  | Maximal number of non-zero basis functions:      165 in task    53
  | Maximal number of non-zero basis functions:      157 in task    54
  | Maximal number of non-zero basis functions:      155 in task    55
  | Maximal number of non-zero basis functions:      140 in task    56
  | Maximal number of non-zero basis functions:      149 in task    57
  | Maximal number of non-zero basis functions:      159 in task    58
  | Maximal number of non-zero basis functions:      147 in task    59
  | Maximal number of non-zero basis functions:      160 in task    60
  | Maximal number of non-zero basis functions:      157 in task    61
  | Maximal number of non-zero basis functions:      131 in task    62
  | Maximal number of non-zero basis functions:      160 in task    63
  | Maximal number of non-zero basis functions:      149 in task    64
  | Maximal number of non-zero basis functions:      165 in task    65
  | Maximal number of non-zero basis functions:      164 in task    66
  | Maximal number of non-zero basis functions:      160 in task    67
  | Maximal number of non-zero basis functions:      163 in task    68
  | Maximal number of non-zero basis functions:      162 in task    69
  | Maximal number of non-zero basis functions:      131 in task    70
  | Maximal number of non-zero basis functions:      163 in task    71
  | Maximal number of non-zero basis functions:      155 in task    72
  | Maximal number of non-zero basis functions:      163 in task    73
  | Maximal number of non-zero basis functions:      164 in task    74
  | Maximal number of non-zero basis functions:      165 in task    75
  | Maximal number of non-zero basis functions:      149 in task    76
  | Maximal number of non-zero basis functions:      157 in task    77
  | Maximal number of non-zero basis functions:      163 in task    78
  | Maximal number of non-zero basis functions:      150 in task    79
  | Maximal number of non-zero basis functions:      157 in task    80
  | Maximal number of non-zero basis functions:      138 in task    81
  | Maximal number of non-zero basis functions:      149 in task    82
  | Maximal number of non-zero basis functions:      164 in task    83
  | Maximal number of non-zero basis functions:      163 in task    84
  | Maximal number of non-zero basis functions:      166 in task    85
  | Maximal number of non-zero basis functions:      149 in task    86
  | Maximal number of non-zero basis functions:      155 in task    87
  | Maximal number of non-zero basis functions:      160 in task    88
  | Maximal number of non-zero basis functions:      165 in task    89
  | Maximal number of non-zero basis functions:      149 in task    90
  | Maximal number of non-zero basis functions:      156 in task    91
  | Maximal number of non-zero basis functions:      158 in task    92
  | Maximal number of non-zero basis functions:      158 in task    93
  | Maximal number of non-zero basis functions:      166 in task    94
  | Maximal number of non-zero basis functions:      164 in task    95
  | Maximal number of non-zero basis functions:      164 in task    96
  | Maximal number of non-zero basis functions:      166 in task    97
  | Maximal number of non-zero basis functions:      166 in task    98
  | Maximal number of non-zero basis functions:      164 in task    99
  | Maximal number of non-zero basis functions:      166 in task   100
  | Maximal number of non-zero basis functions:      164 in task   101
  | Maximal number of non-zero basis functions:      165 in task   102
  | Maximal number of non-zero basis functions:      165 in task   103
  | Maximal number of non-zero basis functions:      151 in task   104
  | Maximal number of non-zero basis functions:      164 in task   105
  | Maximal number of non-zero basis functions:      164 in task   106
  | Maximal number of non-zero basis functions:      164 in task   107
  | Maximal number of non-zero basis functions:      163 in task   108
  | Maximal number of non-zero basis functions:      163 in task   109
  | Maximal number of non-zero basis functions:      163 in task   110
  | Maximal number of non-zero basis functions:      163 in task   111
  | Maximal number of non-zero basis functions:      163 in task   112
  | Maximal number of non-zero basis functions:      163 in task   113
  | Maximal number of non-zero basis functions:      164 in task   114
  | Maximal number of non-zero basis functions:      167 in task   115
  | Maximal number of non-zero basis functions:      164 in task   116
  | Maximal number of non-zero basis functions:      164 in task   117
  | Maximal number of non-zero basis functions:      165 in task   118
  | Maximal number of non-zero basis functions:      165 in task   119
  | Maximal number of non-zero basis functions:      165 in task   120
  | Maximal number of non-zero basis functions:      165 in task   121
  | Maximal number of non-zero basis functions:      164 in task   122
  | Maximal number of non-zero basis functions:      156 in task   123
  | Maximal number of non-zero basis functions:      162 in task   124
  | Maximal number of non-zero basis functions:      163 in task   125
  | Maximal number of non-zero basis functions:      159 in task   126
  | Maximal number of non-zero basis functions:      164 in task   127
  Allocating        0.223 MB for KS_eigenvector
  Integrating Hamiltonian matrix: batch-based integration.
  Time summed over all CPUs for integration: real work        0.581 s, elapsed        0.752 s
  Integrating overlap matrix.
  Time summed over all CPUs for integration: real work        0.261 s, elapsed        0.325 s
  Deallocating overlap matrix.

  Updating Kohn-Sham eigenvalues and eigenvectors using ELSI and the ELPA eigensolver.
  Overlap matrix is not singular
  | Lowest and highest eigenvalues :  0.4309E-03,  0.2909E+01
  Finished singularity check of overlap matrix
  | Time :     0.088 s
  Starting ELPA eigensolver
  Finished Cholesky decomposition
  | Time :     0.010 s
  Finished transformation to standard eigenproblem
  | Time :     0.001 s
  Finished solving standard eigenproblem
  | Time :     0.092 s
  Finished back-transformation of eigenvectors
  | Time :     0.000 s

  Obtaining occupation numbers and electronic chemical potential using ELSI.
  | Note that, for insulating systems, the printed 'chemical potential' value is not uniquely defined.
  | It can be anywhere in the energy gap, as long as it correctly separates occupied and unoccupied states.
  | In systems with a gap, the physically relevant chemical potential is the VBM or HOMO.

  | Chemical potential (Fermi level):    -6.47272253 eV
  Writing Kohn-Sham eigenvalues.

  State    Occupation    Eigenvalue [Ha]    Eigenvalue [eV]
      1       2.00000         -18.944522         -515.50667
      2       2.00000         -18.917645         -514.77532
      3       2.00000         -18.917645         -514.77531
      4       2.00000          -1.221769          -33.24603
      5       2.00000          -1.009344          -27.46566
      6       2.00000          -0.735436          -20.01223
      7       2.00000          -0.562184          -15.29781
      8       2.00000          -0.529491          -14.40817
      9       2.00000          -0.516686          -14.05975
     10       2.00000          -0.360994           -9.82314
     11       2.00000          -0.341903           -9.30367
     12       2.00000          -0.323800           -8.81105
     13       0.00000          -0.222051           -6.04233
     14       0.00000           0.021251            0.57826
     15       0.00000           0.083391            2.26918
     16       0.00000           0.176874            4.81299
     17       0.00000           0.185869            5.05774
     18       0.00000           0.187096            5.09115
     19       0.00000           0.227809            6.19901
     20       0.00000           0.252059            6.85886
     21       0.00000           0.253733            6.90443
     22       0.00000           0.267229            7.27166
     23       0.00000           0.311107            8.46566
     24       0.00000           0.351098            9.55386
     25       0.00000           0.352634            9.59565
     26       0.00000           0.588230           16.00655
     27       0.00000           0.686503           18.68069
     28       0.00000           0.755536           20.55917
     29       0.00000           0.840171           22.86221
     30       0.00000           0.846704           23.03999
     31       0.00000           0.972688           26.46820
     32       0.00000           1.006567           27.39009
     33       0.00000           1.076063           29.28117
     34       0.00000           1.080741           29.40847
     35       0.00000           1.143004           31.10273
     36       0.00000           1.172585           31.90767
     37       0.00000           1.183996           32.21817
     38       0.00000           1.197136           32.57574
     39       0.00000           1.200988           32.68055
     40       0.00000           1.239725           33.73464
     41       0.00000           1.246848           33.92846
     42       0.00000           1.252569           34.08413
     43       0.00000           1.267196           34.48215
     44       0.00000           1.520945           41.38701
     45       0.00000           1.576828           42.90768
     46       0.00000           1.645280           44.77035
     47       0.00000           1.649421           44.88304
     48       0.00000           1.671233           45.47657
     49       0.00000           1.807490           49.18431
     50       0.00000           1.830105           49.79968
     51       0.00000           1.900321           51.71037
     52       0.00000           2.552193           69.44871
     53       0.00000           2.625351           71.43943
     54       0.00000           2.651418           72.14875
     55       0.00000           2.747156           74.75391
     56       0.00000           2.851762           77.60040
     57       0.00000           2.883675           78.46878
     58       0.00000           2.966235           80.71537
     59       0.00000           2.984985           81.22556
     60       0.00000           2.994806           81.49281
     61       0.00000           3.017572           82.11230
     62       0.00000           3.036936           82.63923
     63       0.00000           3.201745           87.12391
     64       0.00000           3.247532           88.36985
     65       0.00000           3.252106           88.49430
     66       0.00000           3.351323           91.19414
     67       0.00000           3.487734           94.90606
     68       0.00000           3.492732           95.04208
     69       0.00000           3.545043           96.46553
     70       0.00000           3.555618           96.75330
     71       0.00000           3.631084           98.80682
     72       0.00000           3.641550           99.09162
     73       0.00000           3.733786          101.60148
     74       0.00000           3.779022          102.83241
     75       0.00000           3.801361          103.44030
     76       0.00000           3.817601          103.88220
     77       0.00000           3.892303          105.91495
     78       0.00000           3.964059          107.86753
     79       0.00000           3.976430          108.20415
     80       0.00000           4.010145          109.12159
     81       0.00000           4.087790          111.23442
     82       0.00000           4.102095          111.62369
     83       0.00000           4.154231          113.04237
     84       0.00000           4.319570          117.54147
     85       0.00000           4.371873          118.96471
     86       0.00000           4.412783          120.07794
     87       0.00000           4.491484          122.21950
     88       0.00000           4.501078          122.48055
     89       0.00000           4.642944          126.34095
     90       0.00000           4.656066          126.69801
     91       0.00000           4.706356          128.06647
     92       0.00000           4.788962          130.31430
     93       0.00000           4.981087          135.54229
     94       0.00000           5.044072          137.25619
     95       0.00000           5.053473          137.51201
     96       0.00000           5.188796          141.19432
     97       0.00000           5.605251          152.52663
     98       0.00000           7.097429          193.13088
     99       0.00000           7.206337          196.09441
    100       0.00000           7.825986          212.95592
    101       0.00000           7.958299          216.55632
    102       0.00000           8.154410          221.89279
    103       0.00000           8.162097          222.10195
    104       0.00000           8.227772          223.88906
    105       0.00000           8.260729          224.78589
    106       0.00000           8.268981          225.01043
    107       0.00000           8.414419          228.96800
    108       0.00000           8.503995          231.40547
    109       0.00000           8.620065          234.56390
    110       0.00000           8.620462          234.57471
    111       0.00000           8.622445          234.62866
    112       0.00000           8.622711          234.63592
    113       0.00000           8.701787          236.78768
    114       0.00000           8.735627          237.70851
    115       0.00000           8.808732          239.69779
    116       0.00000           8.929939          242.99600
    117       0.00000           9.224917          251.02276
[...]
      69    0.0000       99.8995       -3.6172      -13.1871       -3.8591      105.6102
      70    0.0000      100.5073       -3.8007      -13.8192       -4.7386      105.7873
      71    0.0000      102.8330       -3.4493      -13.4343       -4.8910      107.9269
      72    0.0000      102.8524       -3.4726      -13.3140       -4.4101      108.2837
      73    0.0000      103.9393       -3.5084      -13.8647       -5.1631      109.1324
      74    0.0000      105.8877       -3.3370      -13.4040       -5.2705      110.6842
      75    0.0000      106.4894       -2.7136      -12.5728       -4.3235      112.0251
      76    0.0000      106.9645       -4.0499      -14.7123       -5.3718      112.2550
      77    0.0000      109.0565       -3.5259      -13.6765       -3.8651      115.3420
      78    0.0000      110.5922       -3.2765      -13.1999       -4.3718      116.1438
      79    0.0000      111.0759       -2.6458      -12.8337       -4.4110      116.8529
      80    0.0000      112.2086       -2.7253      -12.4899       -3.6689      118.3042
      81    0.0000      114.0522       -1.9298      -11.3040       -2.7186      120.7079
      82    0.0000      114.9073       -2.6325      -12.3953       -3.6376      121.0324
      83    0.0000      116.4879       -3.7817      -13.9966       -4.4363      122.2664
      84    0.0000      121.1778       -3.3848      -14.0344       -4.5143      127.3132
      85    0.0000      121.3670       -2.9756      -13.3242       -3.7859      127.9297
      86    0.0000      124.3261       -3.8877      -15.0797       -3.8466      131.6714
      87    0.0000      125.8667       -3.3264      -14.2382       -4.5091      132.2694
      88    0.0000      125.9720       -4.2063      -16.1878       -6.3421      131.6114
      89    0.0000      130.8029       -5.4545      -18.4537       -7.1824      136.6197
      90    0.0000      130.9256       -5.0488      -17.2042       -6.5576      136.5235
      91    0.0000      131.9258       -5.6116      -18.8100       -7.4812      137.6430
      92    0.0000      133.6317       -2.8913      -13.4440       -4.3671      139.8173
      93    0.0000      138.8845       -2.7637      -13.3313       -4.5964      144.8558
      94    0.0000      141.1713       -4.9121      -17.4985       -6.4312      147.3265
      95    0.0000      141.2855       -4.2606      -16.7686       -6.8490      146.9446
      96    0.0000      144.4239       -4.4348      -17.2735       -6.9021      150.3605
      97    0.0000      156.3769       -3.7343      -15.9400       -4.0894      164.4932
      98    0.0000      196.8286       -4.4766      -18.7443       -2.6617      208.4346
      99    0.0000      199.9858       -4.7732      -19.5610       -2.5297      212.2438
     100    0.0000      216.2813       -1.9401      -14.5958       -2.3095      226.6276
     101    0.0000      219.7823       -2.0508      -14.8636       -2.4066      230.1885
     102    0.0000      225.2156       -2.0409      -14.9391       -2.6447      235.4692
     103    0.0000      225.3477       -1.8942      -14.5959       -2.5396      235.5099
     104    0.0000      226.8550       -2.0204      -14.9572       -2.4881      237.3038
     105    0.0000      227.8072       -1.8846      -14.6656       -2.7295      237.8587
     106    0.0000      228.1592       -2.3269      -15.3762       -3.7808      237.4276
     107    0.0000      232.2350       -2.1178      -15.2270       -2.3038      243.0405
     108    0.0000      234.9268       -2.2225      -15.3576       -3.1926      244.8693
     109    0.0000      239.5385       -1.7875      -14.5928       -2.8027      249.5411
     110    0.0000      239.5565       -1.7889      -14.5953       -2.8794      249.4835
     111    0.0000      239.6379       -1.7992      -14.6182       -2.8723      249.5846
     112    0.0000      239.6437       -1.7973      -14.6149       -2.8538      249.6076
     113    0.0000      241.3265       -1.8121      -14.7253       -2.7355      251.5042
     114    0.0000      241.7679       -1.8600      -14.7795       -3.1953      251.4921
     115    0.0000      243.9598       -1.7479      -14.6258       -2.5820      254.2557
     116    0.0000      247.0523       -1.8781      -14.9479       -3.1147      257.0074
     117    0.0000      255.3010       -2.0364      -15.4514       -2.3825      266.3336
     118    0.0000      258.5587       -1.7796      -15.0214       -2.6318      269.1687
     119    0.0000      261.1110       -2.0171      -15.5281       -2.7060      271.9161
     120    0.0000      274.8797       -1.8918      -15.4063       -2.9942      285.4000
     121    0.0000      280.6870       -2.0420      -15.9167       -3.5440      291.0177
     122    0.0000      280.6924       -2.0575      -15.9330       -2.8142      291.7537
     123    0.0000      281.7739       -1.9050      -15.7668       -2.5366      293.0991
     124    0.0000      291.1570       -2.3988      -16.9781       -4.3775      301.3588
     125    0.0000      293.1833       -2.5349      -17.4355       -5.0210      303.0630
     126    0.0000      293.2803       -2.6311      -17.6592       -5.0787      303.2297
     127    0.0000      294.7416       -2.3938      -16.9130       -3.8244      305.4364
     128    0.0000      295.9978       -2.4012      -16.9865       -3.9274      306.6557
     129    0.0000      296.0306       -2.7171      -17.8492       -5.2617      305.9009
     130    0.0000      296.1780       -2.6916      -17.7741       -5.1957      306.0648
     131    0.0000      296.8052       -2.6508      -17.7195       -5.3502      306.5237
     132    0.0000      297.1049       -2.6416      -17.7047       -5.2359      306.9321
     133    0.0000      301.1566       -2.6827      -17.8351       -5.0993      311.2098
     134    0.0000      301.2292       -2.3976      -17.2275       -4.8522      311.2070
     135    0.0000      305.3860       -2.6674      -17.7752       -5.4624      315.0314
     136    0.0000      306.9038       -2.3953      -17.3232       -5.2652      316.5665
     137    0.0000      308.8600       -2.4382      -17.4623       -4.6877      319.1963
     138    0.0000      309.1257       -2.3147      -17.1697       -5.8446      318.1361
     139    0.0000      309.3945       -2.5714      -17.6288       -4.9242      319.5277
     140    0.0000      310.2120       -2.4331      -17.4640       -5.0946      320.1484
     141    0.0000      311.0339       -2.5010      -17.7285       -4.8883      321.3731
     142    0.0000      311.3510       -2.5724      -17.6630       -5.2716      321.1700
     143    0.0000      312.5179       -4.4375      -19.9322       -4.5549      323.4578
     144    0.0000      314.8035       -2.5932      -17.9009       -5.4946      324.6167
     145    0.0000      316.9247       -2.8381      -18.3041       -5.9308      326.4598
     146    0.0000      317.7691       -2.7708      -18.3034       -5.1110      328.1908
     147    0.0000      320.0080       -3.0572      -18.8862       -6.7969      329.0401
     148    0.0000      321.9480       -3.4886      -19.4768       -5.2912      332.6450
     149    0.0000      322.1850       -2.9944      -18.8126       -6.7676      331.2356
     150    0.0000      322.7933       -3.1178      -18.9840       -6.1856      332.4739
     151    0.0000      323.0410       -3.2287      -19.2398       -4.4099      334.6423
     152    0.0000      324.6822       -3.1456      -19.1356       -7.0025      333.6698
     153    0.0000      327.0029       -3.0818      -19.0500       -6.6940      336.2770
     154    0.0000      327.2597       -3.1923      -19.1703       -6.1777      337.0599
     155    0.0000      332.1408       -2.6670      -18.1140       -5.2162      342.3716
     156    0.0000      333.8131       -3.5399      -19.2022       -5.4928      343.9826
     157    0.0000      358.8484       -2.4490      -18.0809       -4.1829      370.2973
     158    0.0000      362.3973       -3.6299      -19.6991       -4.6815      373.7850
     159    0.0000      363.6342       -2.7178      -18.4840       -4.3285      375.0719
     160    0.0000      366.3684       -2.3805      -18.1115       -3.8255      378.2739
     161    0.0000      369.4808       -6.7934      -23.5159       -4.4162      381.7871
     162    0.0000      373.6229       -6.7912      -23.4921       -5.1570      385.1668
     163    0.0000      388.4998       -5.4865      -22.0541       -4.7928      400.2746
     164    0.0000      407.8461       -2.9927      -19.7451       -2.5212      422.0774
     165    0.0000      409.7765       -3.1590      -20.1772       -2.7699      424.0247
     166    0.0000     1284.9578      -13.7227      -46.9349       -2.4593     1315.7106
     167    0.0000     1298.3246      -13.6413      -46.8921       -2.3094     1329.2660
     168    0.0000     1303.9480      -13.5614      -46.8282       -2.3410     1334.8737
     169    0.0000     6880.7699      -15.6267      -94.6394       -1.3997     6958.3828
     170    0.0000     6896.0894      -15.5951      -94.6151       -1.4719     6973.6375
     171    0.0000     6902.9065      -15.5675      -94.5863       -0.8764     6981.0490
----------------------------------------------------------------------------------------

   DFT/Hartree-Fock HOMO level (eV):    -9.8412   -9.8412

   Quasiparticle HOMO level (eV):      -12.5658  -12.5658
----------------------------------------------------------------------------------------

  Printing out the self-energy matrix element: 12 for spin  1

------------------------------------------------------------------------------------------------------

  Start calculating the spectral function for state: 12

------------------------------------------------------------------------------------------------------

          | Total time for transforming the 3-center integrals :        0.273 s
          | Total time for calculating the exchange-correlation
                                  energy matrix elements   :        0.009 s
          | Total time for calculating polarisability     
                        for imaginary frequencies          :        9.752 s
          | Total time for calculating self energy 
                        on imaginary frequency axis        :       65.303 s
          | Total time for calculating the quasiparticle 
                  energies with analytic continuation      :        0.025 s
          | Total time for calculating the quasiparticle 
                  energies with contour deformation        :      323.218 s

------------------------------------------------------------------------------
  Final output of selected total energy values:

  The following output summarizes some interesting total energy values
  at the end of a run (AFTER all relaxation, molecular dynamics, etc.).

  | Total energy of the DFT / Hartree-Fock s.c.f. calculation      :          -6128.825208642 eV
  | Final zero-broadening corrected energy (caution - metals only) :          -6128.825208642 eV
  | For reference only, the value of 1 Hartree used in FHI-aims is :             27.211384500 eV

  Before relying on these values, please be sure to understand exactly which
  total energy value is referred to by a given number. Different objects may
  all carry the same name 'total energy'. Definitions:

  Total energy of the DFT / Hartree-Fock s.c.f. calculation:
  | Note that this energy does not include ANY quantities calculated after the
  | s.c.f. cycle, in particular not ANY RPA, MP2, etc. many-body perturbation terms.

  Final zero-broadening corrected energy:
  | For metallic systems only, a broadening of the occupation numbers at the Fermi
  | level can be extrapolated back to zero broadening by an electron-gas inspired
  | formula. For all systems that are not real metals, this value can be
  | meaningless and should be avoided.

------------------------------------------------------------------------------
  Methods described in the following list of references were used in this FHI-aims run.
  If you publish the results, please make sure to cite these reference if they apply.
  FHI-aims is an academic code, and for our developers (often, Ph.D. students
  and postdocs), scientific credit in the community is essential.
  Thank you for helping us!

  For any use of FHI-aims, please cite:

    Volker Blum, Ralf Gehrke, Felix Hanke, Paula Havu, Ville Havu,
    Xinguo Ren, Karsten Reuter, and Matthias Scheffler
    'Ab initio molecular simulations with numeric atom-centered orbitals'
    Computer Physics Communications 180, 2175-2196 (2009)
    http://doi.org/10.1016/j.cpc.2009.06.022


  For Hartree-Fock, hybrid functionals, or many-body perturbation theory used in your run, please cite:

    Xinguo Ren, Patrick Rinke, Volker Blum, Juergen Wieferink, Alex Tkatchenko,
    Andrea Sanfilippo, Karsten Reuter, and Matthias Scheffler,
    'Resolution-of-identity approach to Hartree-Fock, hybrid density functionals,
    RPA, MP2, and GW with numeric atom-centered orbital basis functions'
    New Journal of Physics 14, 053020 (2012).
    http://doi.org/10.1088/1367-2630/14/5/053020


  The ELSI infrastructure was used in your run to solve the Kohn-Sham electronic structure.
  Please check out http://elsi-interchange.org to learn more.
  If scalability is important for your project, please acknowledge ELSI by citing:

    V. W-z. Yu, F. Corsetti, A. Garcia, W. P. Huhn, M. Jacquelin, W. Jia,
    B. Lange, L. Lin, J. Lu, W. Mi, A. Seifitokaldani, A. Vazquez-Mayagoitia,
    C. Yang, H. Yang, and V. Blum
    'ELSI: A unified software interface for Kohn-Sham electronic structure solvers'
    Computer Physics Communications 222, 267-285 (2018).
    http://doi.org/10.1016/j.cpc.2017.09.007


  For the real-space grid partitioning and parallelization used in this calculation, please cite:

    Ville Havu, Volker Blum, Paula Havu, and Matthias Scheffler,
    'Efficient O(N) integration for all-electron electronic structure calculation'
    'using numerically tabulated basis functions'
    Journal of Computational Physics 228, 8367-8379 (2009).
    http://doi.org/10.1016/j.jcp.2009.08.008

  Of course, there are many other important community references, e.g., those cited in the
  above references. Our list is limited to references that describe implementations in the
  FHI-aims code. The reason is purely practical (length of this list) - please credit others as well.

 * A warning was issued further up regarding the accuracy of onsite integrals.
   An integral with a negative eigenvalue was among the flagged integrals.
   In most standard situations, this warning is probably harmless.
   If needed, this can be verified by adjusting the radial_multiplier flag.

 * Warning - angular integration grids had to be adjusted for use with RI_method 'V'.
 * Background: You are using an electronic structure method that requires RI_method 'V'
 * for the resolution of identity of the Coulomb operator. (See Ren et al.,
 * New J. Phys 2012 for details.) This method requires three-center integrations
 * to be carried out on FHI-aims' normal angular and radial integration grids.
 * (See FHI-aims CPC Blum et al. 2009, p. 2183 for grid details and references.)
 * One of the angular grids specified in your control.in file was not large
 * enough for the maximal angular momenta of orbital and product basis functions
 * for its species.
 * This can lead to atomic total energy errors which cancel in energy differences.
 * Effective Sep 22, 2014, we have changed the default behavior of the code to
 * simply 'upgrade' the angular grids internally to a safe setting in this case.
 * Please be sure to NOT mix total energies from before and after the change.

------------------------------------------------------------
          Leaving FHI-aims.
          Date     :  20240515, Time     :  124431.947

          Computational steps:
          | Number of self-consistency cycles          :           15
          | Number of SCF (re)initializations          :            1

          Detailed time accounting                     :  max(cpu_time)    wall_clock(cpu1)
          | Total time                                  :      777.914 s         787.723 s
          | Preparation time                            :        0.110 s           0.110 s
          | Boundary condition initalization            :        0.001 s           0.001 s
          | Grid partitioning                           :        0.059 s           0.058 s
          | Preloading free-atom quantities on grid     :        0.010 s           0.011 s
          | Free-atom superposition energy              :        0.002 s           0.002 s
          | Total time for integrations                 :        0.195 s           0.174 s
          | Product basis setup: Total time             :        3.898 s           4.150 s
          | Product basis: | 3-center integrations     :(       2.366 s)  (       2.376 s)
          | Product basis: | 2-center integrations     :(       0.078 s)  (       0.078 s)
          | Product basis: | 2-center linear algebra   :(       1.042 s)  (       1.080 s)
          | Product basis: | 3-center x 2-center       :(       0.320 s)  (       0.510 s)
          | Total time evaluating exchange matrix       :        0.227 s           0.230 s
          | Transforming ovlp_3fn to ovlp_3KS           :        0.273 s           0.275 s
          | Screened Coulomb matrix W_mn(iw)            :       74.183 s          74.700 s
          | Polarisability matrix Pi_PQ(iw)             :        9.752 s           9.752 s
          | Total time for GW calculation               :      768.611 s         777.680 s
          | GW self-energy (analytic cont.)             :       74.958 s          75.505 s
          | Contour def: | Solving qp equations         :      323.218 s         324.827 s
          | Contour def: | GW self-energy               :      690.469 s         691.690 s
          | Contour def: | Scr Coulomb matrix W_mn(w)   :      689.338 s         690.547 s
          | Contour def: | CD-WAC W_mn(w) and Pade      :        0.000 s           0.000 s
          | Contour def: | Scr aux Coulomb mat W_PQ(w)  :      509.983 s         510.444 s
          | Contour def: | Polarisability Pi_PQ(w)      :      289.195 s         288.630 s
          | Contour def: | Printing self-energy CD      :      349.093 s         350.865 s
          | Contour def: | Spectral function CD         :       21.108 s          26.045 s
          | Total time for solution of K.-S. equations  :        0.586 s           0.593 s
          | Total time for density update               :        0.223 s           0.223 s
          | Total time for mixing                       :        3.265 s           3.091 s
          | Total time for Hartree multipole update     :        0.246 s           0.246 s
          | Total time for Hartree multipole sum        :        0.095 s           0.096 s
          | Total time for total energy evaluation      :        0.009 s           0.011 s

          Partial memory accounting:
          | Residual value for overall tracked memory usage across tasks:     0.000000 MB (should be 0.000000 MB)
          | Peak values for overall tracked memory usage:
          |   Minimum:        1.858 MB (on task  48 after allocating gradient_basis_wave)
          |   Maximum:        2.291 MB (on task   1 after allocating gradient_basis_wave)
          |   Average:        2.209 MB
          | Largest tracked array allocation:
          |   Minimum:        0.582 MB (gradient_basis_wave on task  48)
          |   Maximum:        0.753 MB (gradient_basis_wave on task   1)
          |   Average:        0.722 MB
          Note:  These values currently only include a subset of arrays which are explicitly tracked.
          The "true" memory usage will be greater.

          Have a nice day.
------------------------------------------------------------
