 DBCSR| CPU Multiplication driver                                           XSMM (U)
 DBCSR| Multrec recursion limit                                              512 (U)
 DBCSR| Multiplication stack size                                           1000 (D)
 DBCSR| Maximum elements for images                                    UNLIMITED (U)
 DBCSR| Multiplicative factor virtual images                                   1 (U)
 DBCSR| Use multiplication densification                                       T (D)
 DBCSR| Multiplication size stacks                                             3 (U)
 DBCSR| Use memory pool for CPU allocation                                     F (U)
 DBCSR| Number of 3D layers                                               SINGLE (U)
 DBCSR| Use MPI memory allocation                                              F (U)
 DBCSR| Use RMA algorithm                                                      F (U)
 DBCSR| Use Communication thread                                               T (U)
 DBCSR| Communication thread load                                             75 (D)
 DBCSR| MPI: My process id                                                     0
 DBCSR| MPI: Number of processes                                               1
 DBCSR| OMP: Current number of threads                                         4
 DBCSR| OMP: Max number of threads                                             4
 DBCSR| Split modifier for TAS multiplication algorithm                  1.0E+00 (U)


  **** **** ******  **  PROGRAM STARTED AT               2024-05-02 19:07:07.116
 ***** ** ***  *** **   PROGRAM STARTED ON                              n2cn0735
 **    ****   ******    PROGRAM STARTED BY                              eprop2d4
 ***** **    ** ** **   PROGRAM PROCESS ID                               2117829
  **** **  *******  **  PROGRAM STARTED IN /scratch/hpc-prf-eprop2d/eprop2d4_Mia
                                           /CP2K/SC_GW/LEV_10/Only_HOMO/0_O3_PBE

 CP2K| version string:                 CP2K version 2024.1 (Development Version)
 CP2K| source code revision number:                                  git:629d267
 CP2K| cp2kflags: omp libint fftw3 libxc elpa parallel scalapack cosma xsmm plum
 CP2K|            ed2 spglib libvori libbqb libvdwxc
 CP2K| is freely available from                            https://www.cp2k.org/
 CP2K| Program compiled at                         Wed Apr 17 14:27:35 CEST 2024
 CP2K| Program compiled on                                              n2login1
 CP2K| Program compiled for                                                local
 CP2K| Data directory path    /opt/software/pc2/EB-SW/software/CP2K/2023.1-foss-
 CP2K| Input file name                                                    GW.inp

 GLOBAL| Force Environment number                                              1
 GLOBAL| Basis set file name                              BASIS_def2_QZVP_RI_ALL
 GLOBAL| Potential file name                                           POTENTIAL
 GLOBAL| MM Potential file name                                     MM_POTENTIAL
 GLOBAL| Coordinate file name                                      __STD_INPUT__
 GLOBAL| Method name                                                        CP2K
 GLOBAL| Project name                                                   ALL_ELEC
 GLOBAL| Run type                                                         ENERGY
 GLOBAL| FFT library                                                       FFTW3
 GLOBAL| Diagonalization library                                            ELPA
 GLOBAL| DGEMM library                                                      BLAS
 GLOBAL| Minimum number of eigenvectors for ELPA usage                        16
 GLOBAL| Orthonormality check for eigenvectors                          DISABLED
 GLOBAL| Matrix multiplication library                                     COSMA
 GLOBAL| All-to-all communication in single precision                          F
 GLOBAL| FFTs using library dependent lengths                                  F
 GLOBAL| Grid backend                                                       AUTO
 GLOBAL| Global print level                                               MEDIUM
 GLOBAL| MPI I/O enabled                                                       T
 GLOBAL| Total number of message passing processes                             1
 GLOBAL| Number of threads for this process                                    4
 GLOBAL| This output is from process                                           0
 GLOBAL| Stack size for threads created by OpenMP (OMP_STACKSIZE)        default
 GLOBAL| CPU model name                          AMD EPYC 7763 64-Core Processor
 GLOBAL| CPUID                                                              1002
 GLOBAL| Compiled for CPUID                                                    0

 *** HINT in environment.F:920 :: The compiler target flags (generic) used ***
 *** to build this binary cannot exploit all extensions of this CPU model  ***
 *** (x86_avx2). Consider compiler target flags as part of FCFLAGS and     ***
 *** CFLAGS (ARCH file).                                                   ***


 MEMORY| system memory details [Kb]
 MEMORY|                        rank 0           min           max       average
 MEMORY| MemTotal            263899260     263899260     263899260     263899260
 MEMORY| MemFree             253156812     253156812     253156812     253156812
 MEMORY| Buffers                 89264         89264         89264         89264
 MEMORY| Cached                4848324       4848324       4848324       4848324
 MEMORY| Slab                  2419888       2419888       2419888       2419888
 MEMORY| SReclaimable           233948        233948        233948        233948
 MEMORY| MemLikelyFree       258328348     258328348     258328348     258328348


 *** Fundamental physical constants (SI units) ***

 *** Literature: B. J. Mohr and B. N. Taylor,
 ***             CODATA recommended values of the fundamental physical
 ***             constants: 2006, Web Version 5.1
 ***             http://physics.nist.gov/constants

 Speed of light in vacuum [m/s]                             2.99792458000000E+08
 Magnetic constant or permeability of vacuum [N/A**2]       1.25663706143592E-06
 Electric constant or permittivity of vacuum [F/m]          8.85418781762039E-12
 Planck constant (h) [J*s]                                  6.62606896000000E-34
 Planck constant (h-bar) [J*s]                              1.05457162825177E-34
 Elementary charge [C]                                      1.60217648700000E-19
 Electron mass [kg]                                         9.10938215000000E-31
 Electron g factor [ ]                                     -2.00231930436220E+00
 Proton mass [kg]                                           1.67262163700000E-27
 Fine-structure constant                                    7.29735253760000E-03
 Rydberg constant [1/m]                                     1.09737315685270E+07
 Avogadro constant [1/mol]                                  6.02214179000000E+23
 Boltzmann constant [J/K]                                   1.38065040000000E-23
 Atomic mass unit [kg]                                      1.66053878200000E-27
 Bohr radius [m]                                            5.29177208590000E-11

 *** Conversion factors ***

 [u] -> [a.u.]                                              1.82288848426455E+03
 [Angstrom] -> [Bohr] = [a.u.]                              1.88972613288564E+00
 [a.u.] = [Bohr] -> [Angstrom]                              5.29177208590000E-01
 [a.u.] -> [s]                                              2.41888432650478E-17
 [a.u.] -> [fs]                                             2.41888432650478E-02
 [a.u.] -> [J]                                              4.35974393937059E-18
 [a.u.] -> [N]                                              8.23872205491840E-08
 [a.u.] -> [K]                                              3.15774647902944E+05
 [a.u.] -> [kJ/mol]                                         2.62549961709828E+03
 [a.u.] -> [kcal/mol]                                       6.27509468713739E+02
 [a.u.] -> [Pa]                                             2.94210107994716E+13
 [a.u.] -> [bar]                                            2.94210107994716E+08
 [a.u.] -> [atm]                                            2.90362800883016E+08
 [a.u.] -> [eV]                                             2.72113838565563E+01
 [a.u.] -> [Hz]                                             6.57968392072181E+15
 [a.u.] -> [1/cm] (wave numbers)                            2.19474631370540E+05
 [a.u./Bohr**2] -> [1/cm]                                   5.14048714338585E+03
 

 CELL_TOP| Volume [angstrom^3]:                                      8000.000000
 CELL_TOP| Vector a [angstrom    20.000     0.000     0.000   |a| =    20.000000
 CELL_TOP| Vector b [angstrom     0.000    20.000     0.000   |b| =    20.000000
 CELL_TOP| Vector c [angstrom     0.000     0.000    20.000   |c| =    20.000000
 CELL_TOP| Angle (b,c), alpha [degree]:                                90.000000
 CELL_TOP| Angle (a,c), beta  [degree]:                                90.000000
 CELL_TOP| Angle (a,b), gamma [degree]:                                90.000000
 CELL_TOP| Numerically orthorhombic:                                         YES
 CELL_TOP| Periodicity                                                      NONE

 GENERATE|  Preliminary Number of Bonds generated:                             0
 GENERATE|  Achieved consistency in connectivity generation.

 CELL| Volume [angstrom^3]:                                          8000.000000
 CELL| Vector a [angstrom]:      20.000     0.000     0.000   |a| =    20.000000
 CELL| Vector b [angstrom]:       0.000    20.000     0.000   |b| =    20.000000
 CELL| Vector c [angstrom]:       0.000     0.000    20.000   |c| =    20.000000
 CELL| Angle (b,c), alpha [degree]:                                    90.000000
 CELL| Angle (a,c), beta  [degree]:                                    90.000000
 CELL| Angle (a,b), gamma [degree]:                                    90.000000
 CELL| Numerically orthorhombic:                                             YES
 CELL| Periodicity                                                          NONE

 CELL_REF| Volume [angstrom^3]:                                      8000.000000
 CELL_REF| Vector a [angstrom    20.000     0.000     0.000   |a| =    20.000000
 CELL_REF| Vector b [angstrom     0.000    20.000     0.000   |b| =    20.000000
 CELL_REF| Vector c [angstrom     0.000     0.000    20.000   |c| =    20.000000
 CELL_REF| Angle (b,c), alpha [degree]:                                90.000000
 CELL_REF| Angle (a,c), beta  [degree]:                                90.000000
 CELL_REF| Angle (a,b), gamma [degree]:                                90.000000
 CELL_REF| Numerically orthorhombic:                                         YES
 CELL_REF| Periodicity                                                      NONE

 *******************************************************************************
 *******************************************************************************
 **                                                                           **
 **     #####                         ##              ##                      **
 **    ##   ##            ##          ##              ##                      **
 **   ##     ##                       ##            ######                    **
 **   ##     ##  ##   ##  ##   #####  ##  ##   ####   ##    #####    #####    **
 **   ##     ##  ##   ##  ##  ##      ## ##   ##      ##   ##   ##  ##   ##   **
 **   ##  ## ##  ##   ##  ##  ##      ####     ###    ##   ######   ######    **
 **    ##  ###   ##   ##  ##  ##      ## ##      ##   ##   ##       ##        **
 **     #######   #####   ##   #####  ##  ##  ####    ##    #####   ##        **
 **           ##                                                    ##        **
 **                                                                           **
 **                                                ... make the atoms dance   **
 **                                                                           **
 **            Copyright (C) by CP2K developers group (2000-2024)             **
 **                      J. Chem. Phys. 152, 194103 (2020)                    **
 **                                                                           **
 *******************************************************************************

 DFT| Spin restricted Kohn-Sham (RKS) calculation                            RKS
 DFT| Multiplicity                                                             1
 DFT| Number of spin states                                                    1
 DFT| Charge                                                                   0
 DFT| Self-interaction correction (SIC)                                       NO
 DFT| Cutoffs: density                                              1.000000E-10
 DFT|          gradient                                             1.000000E-10
 DFT|          tau                                                  1.000000E-10
 DFT|          cutoff_smoothing_range                               0.000000E+00
 DFT| XC density smoothing                                                  NONE
 DFT| XC derivatives                                                          PW

 FUNCTIONAL| PBE:
 FUNCTIONAL| J.P.Perdew, K.Burke, M.Ernzerhof, Phys. Rev. Letter, vol. 77, n 18,
 FUNCTIONAL|  pp. 3865-3868, (1996) {spin unpolarized}                          


 QS| Method:                                                                GAPW
 QS| Density plane wave grid type                        NON-SPHERICAL FULLSPACE
 QS| Number of grid levels:                                                    4
 QS| Density cutoff [a.u.]:                                                200.0
 QS| Multi grid cutoff [a.u.]: 1) grid level                               200.0
 QS|                           2) grid level                                66.7
 QS|                           3) grid level                                22.2
 QS|                           4) grid level                                 7.4
 QS| Grid level progression factor:                                          3.0
 QS| Relative density cutoff [a.u.]:                                        25.0
 QS| Interaction thresholds: eps_pgf_orb:                                1.0E-05
 QS|                         eps_filter_matrix:                          0.0E+00
 QS|                         eps_core_charge:                            1.0E-12
 QS|                         eps_rho_gspace:                             1.0E-10
 QS|                         eps_rho_rspace:                             1.0E-10
 QS|                         eps_gvg_rspace:                             1.0E-05
 QS|                         eps_ppl:                                    1.0E-02
 QS|                         eps_ppnl:                                   1.0E-07
 QS| GAPW|      One center basis from orbital basis primitives
 QS| GAPW|                   eps_fit:                                    1.0E-04
 QS| GAPW|                   eps_iso:                                    1.0E-12
 QS| GAPW|                   eps_svd:                                    1.0E-08
 QS| GAPW|                   eps_cpc:                                    1.0E-10
 QS| GAPW|   atom-r-grid: quadrature:                                     GC_LOG
 QS| GAPW|      atom-s-grid:  max l :                                          8
 QS| GAPW|      max_l_rho0 :                                                   2


 ATOMIC KIND INFORMATION

  1. Atomic kind: O                                     Number of atoms:       3

     Orbital Basis Set                                                 def2-QZVP

       Number of orbital shell sets:                                          17
       Number of orbital shells:                                              17
       Number of primitive Cartesian functions:                               29
       Number of Cartesian basis functions:                                   72
       Number of spherical basis functions:                                   57
       Norm type:                                                              2

       Normalised Cartesian orbitals:

                        Set   Shell   Orbital            Exponent    Coefficient

                          1       1    1px               0.128640       0.109815
                          1       1    1py               0.128640       0.109815
                          1       1    1pz               0.128640       0.109815

                          2       1    1s                0.197727       0.211329

                          3       1    1px               0.336177       0.364880
                          3       1    1py               0.336177       0.364880
                          3       1    1pz               0.336177       0.364880

                          4       1    1dx2              0.444000       0.397493
                          4       1    1dxy              0.444000       0.688478
                          4       1    1dxz              0.444000       0.688478
                          4       1    1dy2              0.444000       0.397493
                          4       1    1dyz              0.444000       0.688478
                          4       1    1dz2              0.444000       0.397493

                          5       1    1s                0.518772       0.435655

                          6       1    1px               0.842824       1.151095
                          6       1    1py               0.842824       1.151095
                          6       1    1pz               0.842824       1.151095

                          7       1    1fx3              0.859000       1.045777
                          7       1    1fx2y             0.859000       2.338428
                          7       1    1fx2z             0.859000       2.338428
                          7       1    1fxy2             0.859000       2.338428
                          7       1    1fxyz             0.859000       4.050277
                          7       1    1fxz2             0.859000       2.338428
                          7       1    1fy3              0.859000       1.045777
                          7       1    1fy2z             0.859000       2.338428
                          7       1    1fyz2             0.859000       2.338428
                          7       1    1fz3              0.859000       1.045777

                          8       1    1dx2              1.300000       2.605016
                          8       1    1dxy              1.300000       4.512019
                          8       1    1dxz              1.300000       4.512019
                          8       1    1dy2              1.300000       2.605016
                          8       1    1dyz              1.300000       4.512019
                          8       1    1dz2              1.300000       2.605016

                          9       1    1s                1.325535       0.880448

                         10       1    1gx4              1.846000       6.005824
                         10       1    1gx3y             1.846000      15.889916
                         10       1    1gx3z             1.846000      15.889916
                         10       1    1gx2y2            1.846000      20.513794
                         10       1    1gx2yz            1.846000      35.530933
                         10       1    1gx2z2            1.846000      20.513794
                         10       1    1gxy3             1.846000      15.889916
                         10       1    1gxy2z            1.846000      35.530933
                         10       1    1gxyz2            1.846000      35.530933
                         10       1    1gxz3             1.846000      15.889916
                         10       1    1gy4              1.846000       6.005824
                         10       1    1gy3z             1.846000      15.889916
                         10       1    1gy2z2            1.846000      20.513794
                         10       1    1gyz3             1.846000      15.889916
                         10       1    1gz4              1.846000       6.005824

                         11       1    1px             191.152558       2.569255
                                                        45.233357       3.383308
                                                        14.353466       3.764009
                                                         5.242237       3.495516
                                                         2.079242       2.436773
                         11       1    1py             191.152558       2.569255
                                                        45.233357       3.383308
                                                        14.353466       3.764009
                                                         5.242237       3.495516
                                                         2.079242       2.436773
                         11       1    1pz             191.152558       2.569255
                                                        45.233357       3.383308
                                                        14.353466       3.764009
                                                         5.242237       3.495516
                                                         2.079242       2.436773

                         12       1    1fx3              2.666000      13.370258
                         12       1    1fx2y             2.666000      29.896805
                         12       1    1fx2z             2.666000      29.896805
                         12       1    1fxy2             2.666000      29.896805
                         12       1    1fxyz             2.666000      51.782785
                         12       1    1fxz2             2.666000      29.896805
                         12       1    1fy3              2.666000      13.370258
                         12       1    1fy2z             2.666000      29.896805
                         12       1    1fyz2             2.666000      29.896805
                         12       1    1fz3              2.666000      13.370258

                         13       1    1dx2              3.775000      16.827288
                         13       1    1dxy              3.775000      29.145718
                         13       1    1dxz              3.775000      29.145718
                         13       1    1dy2              3.775000      16.827288
                         13       1    1dyz              3.775000      29.145718
                         13       1    1dz2              3.775000      16.827288

                         14       1    1s                4.094773       2.051552

                         15       1    1s                9.282282       3.790104

                         16       1    1s           116506.469080       0.323542
                                                     17504.349724       0.604284
                                                      3993.451323       1.042947
                                                      1133.006319       1.694135
                                                       369.995696       2.585616
                                                       133.620743       3.631450
                                                        52.035644       4.414414
                                                        21.461939       4.188022

                         17       1    1s               89.835051       1.972527
                                                        26.428011       7.687249

     RI Auxiliary Basis Set                                                RI-5Z

       Number of orbital shell sets:                                          38
       Number of orbital shells:                                              38
       Number of primitive Cartesian functions:                               38
       Number of Cartesian basis functions:                                  259
       Number of spherical basis functions:                                  180
       Norm type:                                                              2

       Normalised Cartesian orbitals:

                        Set   Shell   Orbital            Exponent    Coefficient

                          1       1    1s                0.251005       0.252739

                          2       1    1dx2              0.303063       0.203747
                          2       1    1dxy              0.303063       0.352901
                          2       1    1dxz              0.303063       0.352901
                          2       1    1dy2              0.303063       0.203747
                          2       1    1dyz              0.303063       0.352901
                          2       1    1dz2              0.303063       0.203747

                          3       1    1px               0.416519       0.476962
                          3       1    1py               0.416519       0.476962
                          3       1    1pz               0.416519       0.476962

                          4       1    1s                0.474911       0.407727

                          5       1    1fx3              0.621013       0.504001
                          5       1    1fx2y             0.621013       1.126979
                          5       1    1fx2z             0.621013       1.126979
                          5       1    1fxy2             0.621013       1.126979
                          5       1    1fxyz             0.621013       1.951986
                          5       1    1fxz2             0.621013       1.126979
                          5       1    1fy3              0.621013       0.504001
                          5       1    1fy2z             0.621013       1.126979
                          5       1    1fyz2             0.621013       1.126979
                          5       1    1fz3              0.621013       0.504001

                          6       1    1px               0.696641       0.907197
                          6       1    1py               0.696641       0.907197
                          6       1    1pz               0.696641       0.907197

                          7       1    1dx2              0.719024       0.924082
                          7       1    1dxy              0.719024       1.600557
                          7       1    1dxz              0.719024       1.600557
                          7       1    1dy2              0.719024       0.924082
                          7       1    1dyz              0.719024       1.600557
                          7       1    1dz2              0.719024       0.924082

                          8       1    1gx4              1.007810       1.136912
                          8       1    1gx3y             1.007810       3.007986
                          8       1    1gx3z             1.007810       3.007986
                          8       1    1gx2y2            1.007810       3.883293
                          8       1    1gx2yz            1.007810       6.726061
                          8       1    1gx2z2            1.007810       3.883293
                          8       1    1gxy3             1.007810       3.007986
                          8       1    1gxy2z            1.007810       6.726061
                          8       1    1gxyz2            1.007810       6.726061
                          8       1    1gxz3             1.007810       3.007986
                          8       1    1gy4              1.007810       1.136912
                          8       1    1gy3z             1.007810       3.007986
                          8       1    1gy2z2            1.007810       3.883293
                          8       1    1gyz3             1.007810       3.007986
                          8       1    1gz4              1.007810       1.136912

                          9       1    1s                1.058590       0.743800

                         10       1    1fx3              1.185310       2.158124
                         10       1    1fx2y             1.185310       4.825711
                         10       1    1fx2z             1.185310       4.825711
                         10       1    1fxy2             1.185310       4.825711
                         10       1    1fxyz             1.185310       8.358377
                         10       1    1fxz2             1.185310       4.825711
                         10       1    1fy3              1.185310       2.158124
                         10       1    1fy2z             1.185310       4.825711
                         10       1    1fyz2             1.185310       4.825711
                         10       1    1fz3              1.185310       2.158124

                         11       1    1px               1.274280       1.929839
                         11       1    1py               1.274280       1.929839
                         11       1    1pz               1.274280       1.929839

                         12       1    1dx2              1.442130       3.123685
                         12       1    1dxy              1.442130       5.410380
                         12       1    1dxz              1.442130       5.410380
                         12       1    1dy2              1.442130       3.123685
                         12       1    1dyz              1.442130       5.410380
                         12       1    1dz2              1.442130       3.123685

                         13       1    1hx5              1.724010       4.356106
                         13       1    1hx4y             1.724010      13.068318
                         13       1    1hx4z             1.724010      13.068318
                         13       1    1hx3y2            1.724010      19.962186
                         13       1    1hx3yz            1.724010      34.575521
                         13       1    1hx3z2            1.724010      19.962186
                         13       1    1hx2y3            1.724010      19.962186
                         13       1    1hx2y2z           1.724010      44.636805
                         13       1    1hx2yz2           1.724010      44.636805
                         13       1    1hx2z3            1.724010      19.962186
                         13       1    1hxy4             1.724010      13.068318
                         13       1    1hxy3z            1.724010      34.575521
                         13       1    1hxy2z2           1.724010      44.636805
                         13       1    1hxyz3            1.724010      34.575521
                         13       1    1hxz4             1.724010      13.068318
                         13       1    1hy5              1.724010       4.356106
                         13       1    1hy4z             1.724010      13.068318
                         13       1    1hy3z2            1.724010      19.962186
                         13       1    1hy2z3            1.724010      19.962186
                         13       1    1hyz4             1.724010      13.068318
                         13       1    1hz5              1.724010       4.356106

                         14       1    1s                1.940030       1.171565

                         15       1    1gx4              2.038250       7.886665
                         15       1    1gx3y             2.038250      20.866155
                         15       1    1gx3z             2.038250      20.866155
                         15       1    1gx2y2            2.038250      26.938091
                         15       1    1gx2yz            2.038250      46.658142
                         15       1    1gx2z2            2.038250      26.938091
                         15       1    1gxy3             2.038250      20.866155
                         15       1    1gxy2z            2.038250      46.658142
                         15       1    1gxyz2            2.038250      46.658142
                         15       1    1gxz3             2.038250      20.866155
                         15       1    1gy4              2.038250       7.886665
                         15       1    1gy3z             2.038250      20.866155
                         15       1    1gy2z2            2.038250      26.938091
                         15       1    1gyz3             2.038250      20.866155
                         15       1    1gz4              2.038250       7.886665

                         16       1    1fx3              2.093740       7.763019
                         16       1    1fx2y             2.093740      17.358638
                         16       1    1fx2z             2.093740      17.358638
                         16       1    1fxy2             2.093740      17.358638
                         16       1    1fxyz             2.093740      30.066042
                         16       1    1fxz2             2.093740      17.358638
                         16       1    1fy3              2.093740       7.763019
                         16       1    1fy2z             2.093740      17.358638
                         16       1    1fyz2             2.093740      17.358638
                         16       1    1fz3              2.093740       7.763019

                         17       1    1dx2              2.719410       9.478512
                         17       1    1dxy              2.719410      16.417264
                         17       1    1dxz              2.719410      16.417264
                         17       1    1dy2              2.719410       9.478512
                         17       1    1dyz              2.719410      16.417264
                         17       1    1dz2              2.719410       9.478512

                         18       1    1px               2.756880       5.063635
                         18       1    1py               2.756880       5.063635
                         18       1    1pz               2.756880       5.063635

                         19       1    1hx5              3.223120      33.284552
                         19       1    1hx4y             3.223120      99.853655
                         19       1    1hx4z             3.223120      99.853655
                         19       1    1hx3y2            3.223120     152.528977
                         19       1    1hx3yz            3.223120     264.187938
                         19       1    1hx3z2            3.223120     152.528977
                         19       1    1hx2y3            3.223120     152.528977
                         19       1    1hx2y2z           3.223120     341.065161
                         19       1    1hx2yz2           3.223120     341.065161
                         19       1    1hx2z3            3.223120     152.528977
                         19       1    1hxy4             3.223120      99.853655
                         19       1    1hxy3z            3.223120     264.187938
                         19       1    1hxy2z2           3.223120     341.065161
                         19       1    1hxyz3            3.223120     264.187938
                         19       1    1hxz4             3.223120      99.853655
                         19       1    1hy5              3.223120      33.284552
                         19       1    1hy4z             3.223120      99.853655
                         19       1    1hy3z2            3.223120     152.528977
                         19       1    1hy2z3            3.223120     152.528977
                         19       1    1hyz4             3.223120      99.853655
                         19       1    1hz5              3.223120      33.284552

                         20       1    1s                3.595370       1.860878

                         21       1    1fx3              3.721040      28.310609
                         21       1    1fx2y             3.721040      63.304446
                         21       1    1fx2z             3.721040      63.304446
                         21       1    1fxy2             3.721040      63.304446
                         21       1    1fxyz             3.721040     109.646517
                         21       1    1fxz2             3.721040      63.304446
                         21       1    1fy3              3.721040      28.310609
                         21       1    1fy2z             3.721040      63.304446
                         21       1    1fyz2             3.721040      63.304446
                         21       1    1fz3              3.721040      28.310609

                         22       1    1gx4              3.883140      46.418255
                         22       1    1gx3y             3.883140     122.811159
                         22       1    1gx3z             3.883140     122.811159
                         22       1    1gx2y2            3.883140     158.548524
                         22       1    1gx2yz            3.883140     274.614099
                         22       1    1gx2z2            3.883140     158.548524
                         22       1    1gxy3             3.883140     122.811159
                         22       1    1gxy2z            3.883140     274.614099
                         22       1    1gxyz2            3.883140     274.614099
                         22       1    1gxz3             3.883140     122.811159
                         22       1    1gy4              3.883140      46.418255
                         22       1    1gy3z             3.883140     122.811159
                         22       1    1gy2z2            3.883140     158.548524
                         22       1    1gyz3             3.883140     122.811159
                         22       1    1gz4              3.883140      46.418255

                         23       1    1dx2              4.518780      23.051360
                         23       1    1dxy              4.518780      39.926127
                         23       1    1dxz              4.518780      39.926127
                         23       1    1dy2              4.518780      23.051360
                         23       1    1dyz              4.518780      39.926127
                         23       1    1dz2              4.518780      23.051360

                         24       1    1px               4.708760       9.887199
                         24       1    1py               4.708760       9.887199
                         24       1    1pz               4.708760       9.887199

                         25       1    1hx5              5.427550     181.053374
                         25       1    1hx4y             5.427550     543.160123
                         25       1    1hx4z             5.427550     543.160123
                         25       1    1hx3y2            5.427550     829.690793
                         25       1    1hx3yz            5.427550    1437.066608
                         25       1    1hx3z2            5.427550     829.690793
                         25       1    1hx2y3            5.427550     829.690793
                         25       1    1hx2y2z           5.427550    1855.245014
                         25       1    1hx2yz2           5.427550    1855.245014
                         25       1    1hx2z3            5.427550     829.690793
                         25       1    1hxy4             5.427550     543.160123
                         25       1    1hxy3z            5.427550    1437.066608
                         25       1    1hxy2z2           5.427550    1855.245014
                         25       1    1hxyz3            5.427550    1437.066608
                         25       1    1hxz4             5.427550     543.160123
                         25       1    1hy5              5.427550     181.053374
                         25       1    1hy4z             5.427550     543.160123
                         25       1    1hy3z2            5.427550     829.690793
                         25       1    1hy2z3            5.427550     829.690793
                         25       1    1hyz4             5.427550     543.160123
                         25       1    1hz5              5.427550     181.053374

                         26       1    1s                5.831540       2.674530

                         27       1    1fx3              6.442910      97.361912
                         27       1    1fx2y             6.442910     217.707854
                         27       1    1fx2z             6.442910     217.707854
                         27       1    1fxy2             6.442910     217.707854
                         27       1    1fxyz             6.442910     377.081065
                         27       1    1fxz2             6.442910     217.707854
                         27       1    1fy3              6.442910      97.361912
                         27       1    1fy2z             6.442910     217.707854
                         27       1    1fyz2             6.442910     217.707854
                         27       1    1fz3              6.442910      97.361912

                         28       1    1gx4              7.014070     235.968042
                         28       1    1gx3y             7.014070     624.312756
                         28       1    1gx3z             7.014070     624.312756
                         28       1    1gx2y2            7.014070     805.984303
                         28       1    1gx2yz            7.014070    1396.005762
                         28       1    1gx2z2            7.014070     805.984303
                         28       1    1gxy3             7.014070     624.312756
                         28       1    1gxy2z            7.014070    1396.005762
                         28       1    1gxyz2            7.014070    1396.005762
                         28       1    1gxz3             7.014070     624.312756
                         28       1    1gy4              7.014070     235.968042
                         28       1    1gy3z             7.014070     624.312756
                         28       1    1gy2z2            7.014070     805.984303
                         28       1    1gyz3             7.014070     624.312756
                         28       1    1gz4              7.014070     235.968042

                         29       1    1dx2              7.274420      53.034271
                         29       1    1dxy              7.274420      91.858053
                         29       1    1dxz              7.274420      91.858053
                         29       1    1dy2              7.274420      53.034271
                         29       1    1dyz              7.274420      91.858053
                         29       1    1dz2              7.274420      53.034271

                         30       1    1px              11.049300      28.714982
                         30       1    1py              11.049300      28.714982
                         30       1    1pz              11.049300      28.714982

                         31       1    1fx3             14.098700     567.031722
                         31       1    1fx2y            14.098700    1267.921477
                         31       1    1fx2z            14.098700    1267.921477
                         31       1    1fxy2            14.098700    1267.921477
                         31       1    1fxyz            14.098700    2196.104418
                         31       1    1fxz2            14.098700    1267.921477
                         31       1    1fy3             14.098700     567.031722
                         31       1    1fy2z            14.098700    1267.921477
                         31       1    1fyz2            14.098700    1267.921477
                         31       1    1fz3             14.098700     567.031722

                         32       1    1s               14.825500       5.384769

                         33       1    1dx2             21.988200     367.486504
                         33       1    1dxy             21.988200     636.505295
                         33       1    1dxz             21.988200     636.505295
                         33       1    1dy2             21.988200     367.486504
                         33       1    1dyz             21.988200     636.505295
                         33       1    1dz2             21.988200     367.486504

                         34       1    1px              25.465100      81.540209
                         34       1    1py              25.465100      81.540209
                         34       1    1pz              25.465100      81.540209

                         35       1    1s               28.708200       8.839233

                         36       1    1px              94.256600     418.629472
                         36       1    1py              94.256600     418.629472
                         36       1    1pz              94.256600     418.629472

                         37       1    1s              105.279000      23.424288

                         38       1    1s              488.561000      74.062640

       Atomic covalent radius [Angstrom]:                                  0.730

       Atomic van der Waals radius [Angstrom]:                             1.520

     The atoms of this atomic kind are PAW atoms (GAPW):
       Hard Gaussian function radius:                                      1.512
       Rho0 radius:                                                        1.512
       Maximum GTO radius used for PAW projector construction:            24.566

     GAPW Soft Basis Set                                          def2-QZVP_soft

       Number of orbital shell sets:                                          17
       Number of orbital shells:                                              17
       Number of primitive Cartesian functions:                               13
       Number of Cartesian basis functions:                                   72
       Number of spherical basis functions:                                   57
       Norm type:                                                              2

       Normalised Cartesian orbitals:

                        Set   Shell   Orbital            Exponent    Coefficient

                          1       1    1px               0.128640       0.109815
                          1       1    1py               0.128640       0.109815
                          1       1    1pz               0.128640       0.109815

                          2       1    1s                0.197727       0.211329

                          3       1    1px               0.336177       0.364880
                          3       1    1py               0.336177       0.364880
                          3       1    1pz               0.336177       0.364880

                          4       1    1dx2              0.444000       0.397493
                          4       1    1dxy              0.444000       0.688478
                          4       1    1dxz              0.444000       0.688478
                          4       1    1dy2              0.444000       0.397493
                          4       1    1dyz              0.444000       0.688478
                          4       1    1dz2              0.444000       0.397493

                          5       1    1s                0.518772       0.435655

                          6       1    1px               0.842824       1.151095
                          6       1    1py               0.842824       1.151095
                          6       1    1pz               0.842824       1.151095

                          7       1    1fx3              0.859000       1.045777
                          7       1    1fx2y             0.859000       2.338428
                          7       1    1fx2z             0.859000       2.338428
                          7       1    1fxy2             0.859000       2.338428
                          7       1    1fxyz             0.859000       4.050277
                          7       1    1fxz2             0.859000       2.338428
                          7       1    1fy3              0.859000       1.045777
                          7       1    1fy2z             0.859000       2.338428
                          7       1    1fyz2             0.859000       2.338428
                          7       1    1fz3              0.859000       1.045777

                          8       1    1dx2              1.300000       2.605016
                          8       1    1dxy              1.300000       4.512019
                          8       1    1dxz              1.300000       4.512019
                          8       1    1dy2              1.300000       2.605016
                          8       1    1dyz              1.300000       4.512019
                          8       1    1dz2              1.300000       2.605016

                          9       1    1s                1.325535       0.880448

                         10       1    1gx4              1.846000       6.005824
                         10       1    1gx3y             1.846000      15.889916
                         10       1    1gx3z             1.846000      15.889916
                         10       1    1gx2y2            1.846000      20.513794
                         10       1    1gx2yz            1.846000      35.530933
                         10       1    1gx2z2            1.846000      20.513794
                         10       1    1gxy3             1.846000      15.889916
                         10       1    1gxy2z            1.846000      35.530933
                         10       1    1gxyz2            1.846000      35.530933
                         10       1    1gxz3             1.846000      15.889916
                         10       1    1gy4              1.846000       6.005824
                         10       1    1gy3z             1.846000      15.889916
                         10       1    1gy2z2            1.846000      20.513794
                         10       1    1gyz3             1.846000      15.889916
                         10       1    1gz4              1.846000       6.005824

                         11       1    1px               2.079242       2.436773
                         11       1    1py               2.079242       2.436773
                         11       1    1pz               2.079242       2.436773

                         12       1    1fx3              2.666000      13.370258
                         12       1    1fx2y             2.666000      29.896805
                         12       1    1fx2z             2.666000      29.896805
                         12       1    1fxy2             2.666000      29.896805
                         12       1    1fxyz             2.666000      51.782785
                         12       1    1fxz2             2.666000      29.896805
                         12       1    1fy3              2.666000      13.370258
                         12       1    1fy2z             2.666000      29.896805
                         12       1    1fyz2             2.666000      29.896805
                         12       1    1fz3              2.666000      13.370258

                         13       1    1dx2              3.775000      16.827288
                         13       1    1dxy              3.775000      29.145718
                         13       1    1dxz              3.775000      29.145718
                         13       1    1dy2              3.775000      16.827288
                         13       1    1dyz              3.775000      29.145718
                         13       1    1dz2              3.775000      16.827288

                         14       1    1s         

                         15       1    1s         

                         16       1    1s         

                         17       1    1s         

     AE Potential information for                                            ALL

       Description:                                       All-electron potential
                                          Krack, Parrinello, PCCP 2, 2105 (2000)

       Gaussian exponent of the core charge distribution:               8.154466
       Electronic configuration (s p d ...):                           4   4   0


 MOLECULE KIND INFORMATION


 All atoms are their own molecule, skipping detailed information


 TOTAL NUMBERS AND MAXIMUM NUMBERS

  Total number of            - Atomic kinds:                                   1
                             - Atoms:                                          3
                             - Shell sets:                                    51
                             - Shells:                                        51
                             - Primitive Cartesian functions:                 87
                             - Cartesian basis functions:                    216
                             - Spherical basis functions:                    171

  Maximum angular momentum of the orbital basis functions:                     4


 MODULE QUICKSTEP: ATOMIC COORDINATES IN ANGSTROM

   Atom Kind Element         X             Y             Z       Z(eff)     Mass
      1    1 O     8     10.000000     10.000000      9.670000   8.0000  15.9994
      2    1 O     8     11.086900     10.000000     10.330000   8.0000  15.9994
      3    1 O     8      8.913100     10.000000     10.330000   8.0000  15.9994



 SCF PARAMETERS         Density guess:                                   RESTART
                        --------------------------------------------------------
                        max_scf:                                              50
                        max_scf_history:                                       0
                        max_diis:                                              4
                        --------------------------------------------------------
                        eps_scf:                                        1.00E-06
                        eps_scf_history:                                0.00E+00
                        eps_diis:                                       1.00E-01
                        eps_eigval:                                     1.00E-05
                        --------------------------------------------------------
                        level_shift [a.u.]:                             0.000000
                        --------------------------------------------------------
                        Mixing method:                           DIRECT_P_MIXING
                        --------------------------------------------------------
                        No outer SCF

 PW_GRID| Information for grid number                                          1
 PW_GRID| Cutoff [a.u.]                                                    400.0
 PW_GRID| spherical cutoff:                                                   NO
 PW_GRID|   Bounds   1           -180     179                Points:         360
 PW_GRID|   Bounds   2           -180     179                Points:         360
 PW_GRID|   Bounds   3           -180     179                Points:         360
 PW_GRID| Volume element (a.u.^3)  0.1157E-02     Volume (a.u.^3)     53986.6767
 PW_GRID| Grid span                                                    FULLSPACE

 PW_GRID| Information for grid number                                          2
 PW_GRID| Number of the reference grid                                         1
 PW_GRID| Cutoff [a.u.]                                                    200.0
 PW_GRID| spherical cutoff:                                                   NO
 PW_GRID|   Bounds   1           -121     121                Points:         243
 PW_GRID|   Bounds   2           -121     121                Points:         243
 PW_GRID|   Bounds   3           -121     121                Points:         243
 PW_GRID| Volume element (a.u.^3)  0.3762E-02     Volume (a.u.^3)     53986.6767
 PW_GRID| Grid span                                                    FULLSPACE

 PW_GRID| Information for grid number                                          3
 PW_GRID| Number of the reference grid                                         2
 PW_GRID| Cutoff [a.u.]                                                     66.7
 PW_GRID| spherical cutoff:                                                   NO
 PW_GRID|   Bounds   1            -72      71                Points:         144
 PW_GRID|   Bounds   2            -72      71                Points:         144
 PW_GRID|   Bounds   3            -72      71                Points:         144
 PW_GRID| Volume element (a.u.^3)  0.1808E-01     Volume (a.u.^3)     53986.6767
 PW_GRID| Grid span                                                    FULLSPACE

 PW_GRID| Information for grid number                                          4
 PW_GRID| Number of the reference grid                                         2
 PW_GRID| Cutoff [a.u.]                                                     22.2
 PW_GRID| spherical cutoff:                                                   NO
 PW_GRID|   Bounds   1            -40      40                Points:          81
 PW_GRID|   Bounds   2            -40      40                Points:          81
 PW_GRID|   Bounds   3            -40      40                Points:          81
 PW_GRID| Volume element (a.u.^3)  0.1016         Volume (a.u.^3)     53986.6767
 PW_GRID| Grid span                                                    FULLSPACE

 PW_GRID| Information for grid number                                          5
 PW_GRID| Number of the reference grid                                         2
 PW_GRID| Cutoff [a.u.]                                                      7.4
 PW_GRID| spherical cutoff:                                                   NO
 PW_GRID|   Bounds   1            -24      23                Points:          48
 PW_GRID|   Bounds   2            -24      23                Points:          48
 PW_GRID|   Bounds   3            -24      23                Points:          48
 PW_GRID| Volume element (a.u.^3)  0.4882         Volume (a.u.^3)     53986.6767
 PW_GRID| Grid span                                                    FULLSPACE

 POISSON| Solver                                          Martyna-Tuckerman (MT)
 POISSON| MT| Alpha                                                        7.000
 POISSON| MT| Relative cutoff                                                2.0
 POISSON| Periodicity                                                       NONE

 RS_GRID| Information for grid number                                          2
 RS_GRID|   Bounds   1           -121     121                Points:         243
 RS_GRID|   Bounds   2           -121     121                Points:         243
 RS_GRID|   Bounds   3           -121     121                Points:         243

 RS_GRID| Information for grid number                                          3
 RS_GRID|   Bounds   1            -72      71                Points:         144
 RS_GRID|   Bounds   2            -72      71                Points:         144
 RS_GRID|   Bounds   3            -72      71                Points:         144

 RS_GRID| Information for grid number                                          4
 RS_GRID|   Bounds   1            -40      40                Points:          81
 RS_GRID|   Bounds   2            -40      40                Points:          81
 RS_GRID|   Bounds   3            -40      40                Points:          81

 RS_GRID| Information for grid number                                          5
 RS_GRID|   Bounds   1            -24      23                Points:          48
 RS_GRID|   Bounds   2            -24      23                Points:          48
 RS_GRID|   Bounds   3            -24      23                Points:          48
 
 RI-RPA| using GPW style
 

  HFX_INFO| Replica ID:                                                        1
  HFX_INFO| FRACTION:                                               1.0000000000
  HFX_INFO| Interaction Potential:                                       COULOMB
  HFX_INFO| EPS_SCHWARZ:                                                 2.0E-17
  HFX_INFO| EPS_SCHWARZ_FORCES                                           2.0E-15
  HFX_INFO| EPS_STORAGE_SCALING:                                         1.0E+00
  HFX_INFO| NBINS:                                                            64
  HFX_INFO| BLOCK_SIZE:                                                        1
  HFX_INFO| Number of periodic shells considered:                           NONE
  HFX_INFO| Number of periodic cells considered:                            NONE


 Number of electrons:                                                         24
 Number of occupied orbitals:                                                 12
 Number of molecular orbitals:                                                12

 Number of orbital functions:                                                171
 Number of independent orbital functions:                                    171

 Extrapolation method: initial_guess


 SCF WAVEFUNCTION OPTIMIZATION

  Step     Update method      Time    Convergence         Total energy    Change
  ------------------------------------------------------------------------------
     1 P_Mix/Diag. 0.40E+00    6.6     0.00000147      -225.3365309471 -2.25E+02
     2 P_Mix/Diag. 0.40E+00    4.1     0.00000316      -225.3365309471  4.97E-12
     3 DIIS/Diag.  0.11E-04    4.1     0.00000129      -225.3365309471  2.76E-11
     4 DIIS/Diag.  0.42E-05    4.1     0.00000070      -225.3365309471 -2.74E-11

  *** SCF run converged in     4 steps ***


  Electronic density on regular grids:        -17.2620106404        6.7379893596
  Core density on regular grids:               24.0000000000        0.0000000000
  Hard and soft densities (Lebedev):          -33.7532436834      -27.0152536349
  Total Rho_soft + Rho1_hard - Rho1_soft      -24.0000006889
  Total charge density (r-space):              -0.0000006889
  Total Rho_soft + Rho0_soft (g-space):        -0.0000008183

  Overlap energy of the core charge distribution:               0.00000000036193
  Self energy of the core charge distribution:               -218.73036068360560
  Core Hamiltonian energy:                                    -19.77119336671782
  Hartree energy:                                              37.28129232883374
  Exchange-correlation energy:                                 -9.48990357471713

  GAPW| Exc from hard and soft atomic rho1:                   -15.79896586738754
  GAPW| local Eh = 1 center integrals:                          1.17260021612996

  Total energy:                                              -225.33653094710249

 !-----------------------------------------------------------------------------!
                     Mulliken Population Analysis

 #  Atom  Element  Kind  Atomic population                           Net charge
       1     O        1          7.752717                              0.247283
       2     O        1          8.123643                             -0.123643
       3     O        1          8.123640                             -0.123640
 # Total charge                             24.000000                  0.000000

 !-----------------------------------------------------------------------------!

 !-----------------------------------------------------------------------------!
                           Hirshfeld Charges

  #Atom  Element  Kind  Ref Charge     Population                    Net charge
      1       O      1       8.000          7.759                         0.241
      2       O      1       8.000          8.118                        -0.118
      3       O      1       8.000          8.118                        -0.118

  Total Charge                                                            0.004
 !-----------------------------------------------------------------------------!


 RI-RPA section
 --------------


  HFX_MEM_INFO| Est. max. program size before HFX [MiB]:                    7046
  HFX_MEM_INFO| Number of cart. primitive ERI's calculated:           1408313181
  HFX_MEM_INFO| Number of sph. ERI's calculated:                       220558436
  HFX_MEM_INFO| Number of sph. ERI's stored in-core:                   126591900
  HFX_MEM_INFO| Number of sph. ERI's stored on disk:                           0
  HFX_MEM_INFO| Number of sph. ERI's calculated on the fly:             93966536
  HFX_MEM_INFO| Total memory consumption ERI's RAM [MiB]:                    727
  HFX_MEM_INFO| Whereof max-vals [MiB]:                                        1
  HFX_MEM_INFO| Total compression factor ERI's RAM:                         1.33
  HFX_MEM_INFO| Total memory consumption ERI's disk [MiB]:                     0
  HFX_MEM_INFO| Total compression factor ERI's disk:                        0.00
  HFX_MEM_INFO| Size of density/Fock matrix [MiB]:                             0
  HFX_MEM_INFO| Size of buffers [MiB]:                                         0
  HFX_MEM_INFO| Est. max. program size after HFX  [MiB]:                    8078

  RI_INFO| RI metric:                                          TRUNCATED COULOMB
  RI_INFO| Cutoff Radius [angstrom]:                                        3.00
  RI_INFO| Number of auxiliary basis functions:                              540
  GENERAL_INFO| Number of basis functions:                                   171
  GENERAL_INFO| Number of occupied orbitals:                                  12
  GENERAL_INFO| Number of virtual orbitals:                                  159
  MEMORY_INFO| Memory for 3-center integrals (compressed):             64.94 MiB
  MEMORY_INFO| Compression factor:                                          1.88
  MEMORY_INFO| Memory of MO-contracted tensor (compressed):             7.85 MiB
  MEMORY_INFO| Compression factor:                                          1.88
  MINIMAX_INFO| Number of integration points:                                 30
  MINIMAX_INFO| Gap for the minimax approximation:                        0.0657
  MINIMAX_INFO| Range for the minimax approximation:                   4124.8522
  MINIMAX_INFO| Minimax parameters:                  Weights           Abscissas
                                                0.2799747757        0.1390440691
                                                0.3030322366        0.4285658262
                                                0.3514607987        0.7535381269
                                                0.4300750515        1.1415170468
                                                0.5466362706        1.6262961988
                                                0.7126509029        2.2512192958
                                                0.9446233777        3.0735089473
                                                1.2659032640        4.1701310593
                                                1.7093454326        5.6458904465
                                                2.3211172345        7.6447264016
                                                3.1661481858       10.3655870594
                                                4.3359496851       14.0848656601
                                                5.9598731479       19.1882686704
                                                8.2213817780       26.2162906356
                                               11.3816715889       35.9294001371
                                               15.8141294962       49.4019126301
                                               22.0548861955       68.1578343697
                                               30.8774986912       94.3685009115
                                               43.4043105095      131.1419349460
                                               61.2748011285      182.9499065570
                                               86.9057979227      256.2654542343
                                              123.9091095171      360.5318037842
                                              177.8059069208      509.6803886172
                                              257.3781704871      724.6381601759
                                              377.6084511568     1037.8525105472
                                              567.2233674632     1502.6329781049
                                              891.8325474154     2216.1957399485
                                             1541.8004917178     3390.2397079407
                                             3298.2637895130     5640.1845677312
                                            12556.7263783485    12031.9143576312
  MINIMAX_INFO| Range for the minimax approximation:                   4124.8522
  MINIMAX_INFO| Gap:                                                      0.0657
  MINIMAX_INFO| Minimax parameters of the time grid: Weights           Abscissas
                                                0.0000962411        0.0000373771
                                                0.0002305836        0.0001997891
                                                0.0003822735        0.0005042701
                                                0.0005653532        0.0009747265
                                                0.0008005490        0.0016522437
                                                0.0011179426        0.0026030942
                                                0.0015592200        0.0039292735
                                                0.0021797549        0.0057810982
                                                0.0030522555        0.0083725107
                                                0.0042732915        0.0120014208
                                                0.0059727905        0.0170780770
                                                0.0083264922        0.0241643879
                                                0.0115720429        0.0340274317
                                                0.0160300143        0.0477113968
                                                0.0221315602        0.0666336997
                                                0.0304548872        0.0927129624
                                                0.0417733670        0.1285390107
                                                0.0571190719        0.1775983314
                                                0.0778669730        0.2445728781
                                                0.1058474710        0.3357364609
                                                0.1434993689        0.4594826041
                                                0.1940843347        0.6270337911
                                                0.2620033605        0.8534114918
                                                0.3533009504        1.1588062453
                                                0.4765548689        1.5706201966
                                                0.6446507781        2.1267775244
                                                0.8788560930        2.8817671578
                                                1.2199572093        3.9195920390
                                                1.7678240695        5.3885316301
                                                2.9164581221        7.6389808407
  MINIMAX_INFO| Maximum deviation of the imag. time fit:                4.46E-06
  MINIMAX_INFO| Number of integration points:                                 30
  MINIMAX_INFO| Minimax params (freq grid, scaled):  Weights           Abscissas
                                                0.0184054301        0.0091407017
                                                0.0199212184        0.0281737465
                                                0.0231048928        0.0495372960
                                                0.0282729624        0.0750428755
                                                0.0359356505        0.1069120636
                                                0.0468493862        0.1479942588
                                                0.0620991642        0.2020512526
                                                0.0832199758        0.2741427529
                                                0.1123716871        0.3711585866
                                                0.1525893214        0.5025612652
                                                0.2081413192        0.6814295599
                                                0.2850436033        0.9259334520
                                                0.3917996842        1.2614291308
                                                0.5404703597        1.7234484923
                                                0.7482265517        2.3619844377
                                                1.0396145670        3.2476620367
                                                1.4498794238        4.4806688527
                                                2.0298744512        6.2037476193
                                                2.8533820649        8.6212185089
                                                4.0281809921       12.0270539035
                                                5.7131525007       16.8467887723
                                                8.1457354494       23.7012170143
                                               11.6888894187       33.5061855063
                                               16.9199382951       47.6374236915
                                               24.8238290030       68.2280101869
                                               37.2890379897       98.7824927871
                                               58.6287160378      145.6918242088
                                              101.3573495135      222.8730065000
                                              216.8265462991      370.7834843893
                                              825.4741849628      790.9732519961
  MINIMAX_INFO| Number of integration points:                                 30
  MINIMAX_INFO| Minimax params (time grid, scaled):  Weights           Abscissas
                                                0.0014639750        0.0005685626
                                                0.0035075292        0.0030390989
                                                0.0058149659        0.0076707200
                                                0.0085998884        0.0148270833
                                                0.0121775755        0.0251331562
                                                0.0170056184        0.0395970488
                                                0.0237181234        0.0597702673
                                                0.0331574096        0.0879393562
                                                0.0464294799        0.1273587076
                                                0.0650033074        0.1825599871
                                                0.0908552897        0.2597837025
                                                0.1266586969        0.3675773429
                                                0.1760284917        0.5176093419
                                                0.2438410631        0.7257634037
                                                0.3366549201        1.0136006069
                                                0.4632654683        1.4103061273
                                                0.6354368783        1.9552751814
                                                0.8688685485        2.7015425724
                                                1.1844758950        3.7203279841
                                                1.6101021150        5.1070656739
                                                2.1828451372        6.9894340006
                                                2.9523199267        9.5381441213
                                                3.9854723116       12.9816955954
                                                5.3742484546       17.6272174377
                                                7.2491292903       23.8915382362
                                                9.8061254698       32.3515428203
                                               13.3687469417       43.8360912387
                                               18.5574172398       59.6229968722
                                               26.8913111150       81.9678173982
                                               44.3637939263      116.2005959408
  Pade approximation: more parameters than data points. Reset # of parameters.
  Number of pade parameters:                                                  11

  MEMORY_INFO| Memory cut:                                                     1
  SPARSITY_INFO| Eps filter for M virt/occ tensors:                     1.00E-09
  SPARSITY_INFO| Eps filter for P matrix:                               1.00E-08
  SPARSITY_INFO| Minimum tensor block size:                                    5

  RPA_LOW_SCALING_INFO| Info for time point   1
     Execution time (s):                                                     1.1
     Occupancy of D occ:                                      2.9E+04 / 100.000%
     Occupancy of D virt:                                     2.9E+04 / 100.000%
     Occupancy of 3c ints:                                    1.5E+07 /  96.681%
     Occupancy of M occ:                                      1.6E+07 / 100.000%
     Occupancy of M virt:                                     1.6E+07 / 100.000%


  RPA_LOW_SCALING_INFO| Info for time point   2
     Execution time (s):                                                     1.0
     Occupancy of D occ:                                      2.9E+04 / 100.000%
     Occupancy of D virt:                                     2.9E+04 / 100.000%
     Occupancy of 3c ints:                                    1.5E+07 /  96.681%
     Occupancy of M occ:                                      1.6E+07 / 100.000%
     Occupancy of M virt:                                     1.6E+07 / 100.000%


  RPA_LOW_SCALING_INFO| Info for time point   3
     Execution time (s):                                                     1.0
     Occupancy of D occ:                                      2.9E+04 / 100.000%
     Occupancy of D virt:                                     2.9E+04 / 100.000%
     Occupancy of 3c ints:                                    1.5E+07 /  96.681%
     Occupancy of M occ:                                      1.6E+07 / 100.000%
     Occupancy of M virt:                                     1.6E+07 / 100.000%


  RPA_LOW_SCALING_INFO| Info for time point   4
     Execution time (s):                                                     1.0
     Occupancy of D occ:                                      2.9E+04 / 100.000%
     Occupancy of D virt:                                     2.9E+04 / 100.000%
     Occupancy of 3c ints:                                    1.5E+07 /  96.681%
[...]
 flops total                         9.464215E+09       0.0%    100.0%      0.0%
 flops max/rank                      9.464215E+09       0.0%    100.0%      0.0%
 matmuls inhomo. stacks                         0       0.0%      0.0%      0.0%
 matmuls total                                861       0.0%    100.0%      0.0%
 number of processed stacks                   114       0.0%    100.0%      0.0%
 average stack size                                     0.0       7.6       0.0
 marketing flops                     9.454392E+09
 -------------------------------------------------------------------------------
 # multiplications                             38
 max memory usage/rank               9.588560E+09
 # max total images/rank                        1
 # max 3D layers                                1
 # MPI messages exchanged                       0
 -------------------------------------------------------------------------------
 -                                                                             -
 -                      DBCSR MESSAGE PASSING PERFORMANCE                      -
 -                                                                             -
 -------------------------------------------------------------------------------
 ROUTINE             CALLS      AVE VOLUME [Bytes]
 MP_Bcast                6                     12.
 MP_Allreduce          194                     11.
 MP_Alltoall          4853                 555526.
 MP_ISend              152                    163.
 MP_IRecv              152                    163.
 -------------------------------------------------------------------------------

 -------------------------------------------------------------------------------
 -                                                                             -
 -                                DBM STATISTICS                               -
 -                                                                             -
 -------------------------------------------------------------------------------
    M  x    N  x    K                                          COUNT     PERCENT
    ?  x    ?  x   ??                                       21464956      16.63%
    ?  x    ?  x    ?                                       18444922      14.29%
   ??  x    ?  x   ??                                       15955852      12.37%
    ?  x  ???  x    ?                                       10829700       8.39%
   ??  x    ?  x    ?                                        9703044       7.52%
   ??  x   ??  x   ??                                        8835247       6.85%
    ?  x   ??  x   ??                                        8623382       6.68%
   ??  x   ??  x    ?                                        7099372       5.50%
    ?  x  ???  x   ??                                        5443200       4.22%
   ??  x  ???  x    ?                                        5443200       4.22%
    ?  x    ?  x  ???                                        4880784       3.78%
   ??  x  ???  x   ??                                        3010770       2.33%
   ??  x    ?  x  ???                                        1955837       1.52%
    ?  x   ??  x  ???                                        1955635       1.52%
  ???  x    ?  x    ?                                        1504610       1.17%
  ???  x    ?  x   ??                                        1155428       0.90%
  ???  x   ??  x    ?                                        1101868       0.85%
  ???  x   ??  x   ??                                         846532       0.66%
   ??  x   ??  x  ???                                         783534       0.61%
 -------------------------------------------------------------------------------

 -------------------------------------------------------------------------------
 -                                                                             -
 -                                GRID STATISTICS                              -
 -                                                                             -
 -------------------------------------------------------------------------------
 LP    KERNEL             BACKEND                              COUNT     PERCENT
 3     collocate ortho    CPU                                   1080      10.62%
 3     integrate ortho    CPU                                   1080      10.62%
 2     collocate ortho    CPU                                   1020      10.03%
 2     integrate ortho    CPU                                   1020      10.03%
 4     collocate ortho    CPU                                    925       9.10%
 4     integrate ortho    CPU                                    925       9.10%
 1     collocate ortho    CPU                                    720       7.08%
 1     integrate ortho    CPU                                    720       7.08%
 5     collocate ortho    CPU                                    600       5.90%
 5     integrate ortho    CPU                                    600       5.90%
 6     collocate ortho    CPU                                    300       2.95%
 6     integrate ortho    CPU                                    300       2.95%
 0     collocate ortho    CPU                                    270       2.66%
 0     integrate ortho    CPU                                    270       2.66%
 7     collocate ortho    CPU                                    120       1.18%
 7     integrate ortho    CPU                                    120       1.18%
 8     collocate ortho    CPU                                     30       0.30%
 8     integrate ortho    CPU                                     30       0.30%
 2     collocate general  CPU                                     15       0.15%
 2     integrate general  CPU                                     15       0.15%
 0     collocate general  CPU                                      3       0.03%
 0     integrate general  CPU                                      3       0.03%
 -------------------------------------------------------------------------------

 MEMORY| Estimated peak process memory [MiB]                                8900

 -------------------------------------------------------------------------------
 ----                             MULTIGRID INFO                            ----
 -------------------------------------------------------------------------------
 count for grid        1:           3527          cutoff [a.u.]          200.00
 count for grid        2:            846          cutoff [a.u.]           66.67
 count for grid        3:            254          cutoff [a.u.]           22.22
 count for grid        4:             22          cutoff [a.u.]            7.41
 total gridlevel count  :           4649

 -------------------------------------------------------------------------------
 -                                                                             -
 -                         MESSAGE PASSING PERFORMANCE                         -
 -                                                                             -
 -------------------------------------------------------------------------------

 ROUTINE             CALLS      AVE VOLUME [Bytes]
 MP_Group             6949
 MP_Bcast             2659                   2199.
 MP_Allreduce         7377                   1006.
 MP_Sync             11626
 MP_Alltoall          2408                     13.
 MP_Wait                10
 MP_comm_split        2585
 MP_ISend               14                 333263.
 MP_IRecv               14                 333263.
 -------------------------------------------------------------------------------


 -------------------------------------------------------------------------------
 -                                                                             -
 -                           R E F E R E N C E S                               -
 -                                                                             -
 -------------------------------------------------------------------------------
 
 CP2K version 2024.1 (Development Version), the CP2K developers group (2024).
 CP2K is freely available from https://www.cp2k.org/ .

 Kuehne,Thomas D.; Iannuzzi,Marcella; Del Ben,Mauro;
 Rybkin,Vladimir V.; Seewald,Patrick; Stein,Frederick; Laino,Teodoro;
 Khaliullin,Rustam Z.; Schuett,Ole; Schiffmann,Florian; Golze,Dorothea;
 Wilhelm,Jan; Chulkov,Sergey; Bani-Hashemian,Mohammad Hossein;
 Weber,Valery; Borstnik,Urban; Taillefumier,Mathieu;
 Jakobovits,Alice Shoshana; Lazzaro,Alfio; Pabst,Hans; Mueller,Tiziano;
 Schade,Robert; Guidon,Manuel; Andermatt,Samuel; Holmberg,Nico;
 Schenter,Gregory K.; Hehn,Anna; Bussy,Augustin; Belleflamme,Fabian;
 Tabacchi,Gloria; Gloess,Andreas; Lass,Michael; Bethune,Iain;
 Mundy,Christopher J.; Plessl,Christian; Watkins,Matt;
 VandeVondele,Joost; Krack,Matthias; Hutter,Juerg. 
 The Journal of Chemical Physics, 152 (19), (2020). 
 CP2K: An electronic structure and molecular dynamics software package -
 Quickstep: Efficient and accurate electronic structure calculations.
 https://doi.org/10.1063/5.0007045

 Wilhelm, J; Golze, D; Talirz, L; Hutter, J; Pignedoli, CA. 
 JOURNAL OF PHYSICAL CHEMISTRY LETTERS, 9, 306-312 (2018). 
 Toward GW calculations on thousands of atoms.
 https://doi.org/10.1021/acs.jpclett.7b02740

 Wilhelm, J; Hutter, J. PHYSICAL REVIEW B, 95, 235123 (2017). 
 Periodic GW calculations in the Gaussian and plane-waves scheme.
 https://doi.org/10.1103/PhysRevB.95.235123

 Wilhelm, J; Del Ben, M; Hutter, J. 
 JOURNAL OF CHEMICAL THEORY AND COMPUTATION, 12, 3623-3635 (2016). 
 GW in the Gaussian and plane waves scheme with application to linear acenes.
 https://doi.org/10.1021/acs.jctc.6b00380

 Wilhelm, J; Seewald, P; Del Ben, M; Hutter, J. 
 JOURNAL OF CHEMICAL THEORY AND COMPUTATION, 12, 5851-5859 (2016). 
 Large-Scale Cubic-Scaling Random Phase Approximation Correlation.
 https://doi.org/10.1021/acs.jctc.6b00840

 Schuett, Ole; Messmer, Peter; Hutter, Juerg; VandeVondele, Joost. 
 Electronic Structure Calculations on Graphics Processing Units, John
 Wiley & Sons, Ltd, 173-190 (2016). 
 GPU-Accelerated Sparse Matrix-Matrix Multiplication for
 Linear Scaling Density Functional Theory.
 https://doi.org/10.1002/9781118670712.ch8

 Heinecke, A; Henry, G; Hutchinson, M; Pabst, H. 
 Proceedings of Intl. Supercomputing Conference, 981-991 (2016). 
 LIBXSMM: Accelerating Small Matrix Multiplications
 by Runtime Code Generation.
 https://doi.org/10.1109/SC.2016.83

 Del Ben, M; Schuett, O; Wentz, T; Messmer, P; Hutter, J;
 VandeVondele, J. 
 COMPUTER PHYSICS COMMUNICATIONS, 187, 120-129 (2015). 
 Enabling simulation at the fifth rung of DFT: Large scale RPA
 calculations with excellent time to solution.
 https://doi.org/10.1016/j.cpc.2014.10.021

 Borstnik, U; VandeVondele, J; Weber, V; Hutter, J. 
 PARALLEL COMPUTING, 40 (5-6), 47-58 (2014). 
 Sparse matrix multiplication: The distributed block-compressed sparse
 row library.
 https://doi.org/10.1016/j.parco.2014.03.012

 Hutter, J; Iannuzzi, M; Schiffmann, F; VandeVondele, J. 
 WIREs Comput Mol Sci., 4 (1), 15-25 (2014). 
 CP2K: atomistic simulations of condensed matter systems.
 https://doi.org/10.1002/wcms.1159

 Marek, A; Blum, V; Johanni, R; Havu, V; Lang, B; Auckenthaler, T;
 Heinecke, A; Bungartz, H; Lederer, H. 
 Journal of Physics: Condensed Matter, 26 (21), (2014). 
 The ELPA library: scalable parallel eigenvalue solutions for
 electronic structure
 theory and computational science.
 https://doi.org/10.1088/0953-8984/26/21/213201

 Del Ben, M; Hutter, J; VandeVondele, J. 
 JOURNAL OF CHEMICAL THEORY AND COMPUTATION, 9 (6), 2654-2671 (2013). 
 Electron Correlation in the Condensed Phase from a Resolution of
 Identity Approach Based on the Gaussian and Plane Waves Scheme.
 https://doi.org/10.1021/ct4002202

 Del Ben, M; Hutter, J; VandeVondele, J. 
 JOURNAL OF CHEMICAL THEORY AND COMPUTATION, 8 (11), 4177-4188 (2012). 
 Second-Order Moller-Plesset Perturbation Theory in the Condensed Phase:
 An Efficient and Massively Parallel Gaussian and Plane Waves Approach.
 https://doi.org/10.1021/ct300531w

 Guidon, M; Hutter, J; VandeVondele, J. 
 JOURNAL OF CHEMICAL THEORY AND COMPUTATION, 5 (11), 3010-3021 (2009). 
 Robust Periodic Hartree-Fock Exchange for Large-Scale Simulations Using
 Gaussian Basis Sets.
 https://doi.org/10.1021/ct900494g

 Guidon, M; Schiffmann, F; Hutter, J; VandeVondele, J. 
 JOURNAL OF CHEMICAL PHYSICS, 128 (21), 214104 (2008). 
 Ab initio molecular dynamics using hybrid density functionals.
 https://doi.org/10.1063/1.2931945

 Frigo, M; Johnson, SG. 
 PROCEEDINGS OF THE IEEE, 93 (2), 216-231 (2005). 
 The design and implementation of FFTW3.
 https://doi.org/10.1109/JPROC.2004.840301

 Lippert, G; Hutter, J; Parrinello, M. 
 THEORETICAL CHEMISTRY ACCOUNTS, 103 (2), 124-140 (1999). 
 The Gaussian and augmented-plane-wave density functional method for ab
 initio molecular dynamics simulations.
 https://doi.org/10.1007/s002140050523

 Krack, M; Parrinello, M. 
 PHYSICAL CHEMISTRY CHEMICAL PHYSICS, 2 (10), 2105-2112 (2000). 
 All-electron ab-initio molecular dynamics.
 https://doi.org/10.1039/b001167n

 Martyna, GJ; Tuckerman, ME. 
 JOURNAL OF CHEMICAL PHYSICS, 110 (6), 2810-2821 (1999). 
 A reciprocal space based method for treating long range interactions in
 ab initio and force-field-based calculations in clusters.
 https://doi.org/10.1063/1.477923

 Perdew, JP; Burke, K; Ernzerhof, M. 
 PHYSICAL REVIEW LETTERS, 77 (18), 3865-3868 (1996). 
 Generalized gradient approximation made simple.
 https://doi.org/10.1103/PhysRevLett.77.3865


 -------------------------------------------------------------------------------
 -                                                                             -
 -                                T I M I N G                                  -
 -                                                                             -
 -------------------------------------------------------------------------------
 SUBROUTINE                       CALLS  ASD         SELF TIME        TOTAL TIME
                                MAXIMUM       AVERAGE  MAXIMUM  AVERAGE  MAXIMUM
 CP2K                                 1  1.0    0.238    0.238   93.710   93.710
 qs_energies                          1  2.0    0.007    0.007   77.360   77.360
 mp2_main                             1  3.0    0.006    0.006   56.644   56.644
 mp2_gpw_main                         1  4.0    0.001    0.001   49.492   49.492
 rpa_ri_compute_en                    1  5.0    0.000    0.000   48.372   48.372
 rpa_num_int                          1  6.0    0.008    0.008   48.371   48.371
 dbt_total                         3289  9.3    0.008    0.008   42.708   42.708
 dbt_contract                       631 11.0    0.019    0.019   36.760   36.760
 dbt_tas_total                     1436 12.1    0.115    0.115   34.506   34.506
 dbt_tas_multiply                   806 12.7    0.001    0.001   34.341   34.341
 compute_mat_P_omega                  1  7.0    0.004    0.004   29.585   29.585
 compute_mat_P_omega_contract        30  8.0    1.078    1.078   29.465   29.465
 dbt_tas_dbm                        806 14.7    0.002    0.002   27.620   27.620
 dbm_multiply                       806 16.7   27.616   27.616   27.616   27.616
 scf_env_do_scf                       1  3.0    0.015    0.015   19.670   19.670
 scf_env_do_scf_inner_loop            4  4.0    0.000    0.000   19.602   19.602
 qs_ks_build_kohn_sham_matrix         5  6.6    0.007    0.007   18.122   18.122
 compute_QP_energies                  1  7.0    0.168    0.168   17.711   17.711
 compute_self_energy_cubic_gw         6  8.0    0.050    0.050   17.071   17.071
 qs_ks_update_qs_env                  4  5.0    0.000    0.000   16.884   16.884
 rebuild_ks_matrix                    4  6.0    0.000    0.000   16.884   16.884
 qs_init_subsys                       1  2.0    0.180    0.180   15.758   15.758
 qs_env_setup                         1  3.0    0.011    0.011   15.545   15.545
 qs_env_rebuild_pw_env                2  3.5    0.000    0.000   15.532   15.532
 pw_env_rebuild                       1  5.0    0.076    0.076   15.532   15.532
 dbt_tas_mm_1N                      422 16.3    0.001    0.001   15.496   15.496
 pw_grid_setup                        5  6.0    0.000    0.000   15.454   15.454
 pw_grid_setup_internal               5  7.0    0.237    0.237   15.454   15.454
 pw_grid_sort                         5  8.0   11.838   11.838   14.464   14.464
 contract_cubic_gw                  360  9.0    0.001    0.001   13.786   13.786
 fft_wrap_pw1pw2                     84 10.0    0.001    0.001   13.082   13.082
 fft_wrap_pw1pw2_200                 53 11.4    0.563    0.563   11.716   11.716
 compute_mat_P_omega_calc_M_occ      30  9.0    1.077    1.077    8.849    8.849
 qs_vxc_create                        5  7.6    0.038    0.038    8.717    8.717
 xc_vxc_pw_create                     4  9.0    0.302    0.302    8.678    8.678
 compute_mat_P_omega_calc_P_t        30  9.0    0.000    0.000    8.614    8.614
 dbt_tas_mm_2                        31 15.1    0.000    0.000    7.930    7.930
 compute_mat_P_omega_calc_M_vir      30  9.0    0.000    0.000    7.303    7.303
 compute_vec_Sigma_x_minus_vxc_       1  4.0    0.002    0.002    7.136    7.136
 fft3d_s                             85 11.9    7.047    7.047    7.075    7.075
 xc_pw_derive                        24 11.0    0.000    0.000    6.231    6.231
 integrate_four_center                1  5.0    0.059    0.059    5.894    5.894
 dbt_copy                          1128 10.3    0.016    0.016    5.772    5.772
 integrate_four_center_main           1  6.0    0.548    0.548    4.707    4.707
 xc_pw_divergence                     4 10.0    0.000    0.000    4.457    4.457
 pw_poisson_solve                     5  7.6    0.000    0.000    4.206    4.206
 integrate_four_center_bin            5  7.0    4.159    4.159    4.159    4.159
 dbt_tas_mm_3N                      351 15.0    0.000    0.000    4.146    4.146
 xc_rho_set_and_dset_create           4 10.0    0.172    0.172    3.819    3.819
 qs_rho_update_rho_low                5  5.0    0.002    0.002    3.316    3.316
 calculate_rho_elec                   5  6.0    0.245    0.245    3.308    3.308
 dbt_tas_reserve_blocks_index      4924 14.5    0.537    0.537    3.087    3.087
 dbt_reshape                        398 12.0    1.783    1.783    2.975    2.975
 pw_gather_s                         43 11.7    2.974    2.974    2.974    2.974
 pw_poisson_rebuild                   5  8.6    0.046    0.046    2.858    2.858
 MTin_create_screen_fn                1 10.0    0.386    0.386    2.812    2.812
 dbm_reserve_blocks                5730 15.5    2.712    2.712    2.712    2.712
 density_rs2pw                        5  7.0    0.000    0.000    2.692    2.692
 sort_shells                          5  9.0    2.626    2.626    2.626    2.626
 dbt_crop                           662 12.0    1.563    1.563    2.359    2.359
 dbt_reserve_blocks_index          3054 12.9    0.049    0.049    2.326    2.326
 dbt_reserve_blocks_index_array    2452 12.3    0.005    0.005    2.308    2.308
 -------------------------------------------------------------------------------

 The number of warnings for this run is : 1
 
 -------------------------------------------------------------------------------
  **** **** ******  **  PROGRAM ENDED AT                 2024-05-02 19:08:43.990
 ***** ** ***  *** **   PROGRAM RAN ON                                  n2cn0735
 **    ****   ******    PROGRAM RAN BY                                  eprop2d4
 ***** **    ** ** **   PROGRAM PROCESS ID                               2117829
  **** **  *******  **  PROGRAM STOPPED IN /scratch/hpc-prf-eprop2d/eprop2d4_Mia
                                           /CP2K/SC_GW/LEV_10/Only_HOMO/0_O3_PBE
