------------------------------------------------------------
          Invoking FHI-aims ...

          When using FHI-aims, please cite the following reference:

            Volker Blum, Ralf Gehrke, Felix Hanke, Paula Havu,
            Ville Havu, Xinguo Ren, Karsten Reuter, and Matthias Scheffler,
            'Ab Initio Molecular Simulations with Numeric Atom-Centered Orbitals',
            Computer Physics Communications 180, 2175-2196 (2009)

          In addition, many other developments in FHI-aims are likely important for
          your particular application. A partial list of references is given at the end of
          this file. Thank you for giving credit to the authors of these developments.

          For any questions about FHI-aims, please visit our slack channel at

            https://fhi-aims.slack.com

          and our main development and support site at

            https://aims-git.rz-berlin.mpg.de .

          The latter site, in particular, has a wiki to collect information, as well
          as an issue tracker to log discussions, suggest improvements, and report issues
          or bugs. https://aims-git.rz-berlin.mpg.de is also the main development site
          of the project and all new and updated code versions can be obtained there.
          Please send an email to aims-coordinators@fhi-berlin.mpg.de and we will add
          you to these sites. They are for you and everyone is welcome there.

------------------------------------------------------------



  Date     :  20240515, Time     :  102243.782
  Time zero on CPU 1             :   0.590611000000000E+00  s.
  Internal wall clock time zero  :           485000563.782  s.

  FHI-aims created a unique identifier for this run for later identification
  aims_uuid : CA385156-8D0D-4DE5-AACB-B1D12666983B

  Build configuration of the current instance of FHI-aims
  -------------------------------------------------------
  FHI-aims version      : 221103.1
  Commit number         : GITDIR-NOTFOUND
  CMake host system     : Linux-4.18.0-372.32.1.el8_6.x86_64
  CMake version         : 3.24.3
  Fortran compiler      : /opt/software/pc2/EB-SW/software/OpenMPI/4.1.4-GCC-12.2.0/bin/mpifort (GNU) version 12.2.0
  Fortran compiler flags: -O3 -ffree-line-length-none -fallow-argument-mismatch -march=znver3 -mprefer-vector-width=256
  C compiler            : /opt/software/pc2/EB-SW/software/GCCcore/12.2.0/bin/gcc (GNU) version 12.2.0
  C compiler flags      : -O3 -DNDEBUG -funroll-loops -march=znver3 -mprefer-vector-width=256
  HIP compiler          :
  HIP compiler flags    :
  HIP GPU arch          :
  Using MPI
  Using ScaLAPACK
  Using LibXC
  Using i-PI
  Using RLSY
  Linking against: /opt/software/pc2/EB-SW/software/ScaLAPACK/2.2.0-gompi-2022b-fb/lib/libscalapack.so
                   /opt/software/pc2/EB-SW/software/OpenBLAS/0.3.21-GCC-12.2.0/lib/libopenblas.so

  Using       38 parallel tasks.
  Task        0 on host n2cn0510 reporting.
  Task        1 on host n2cn0510 reporting.
  Task        2 on host n2cn0510 reporting.
  Task        3 on host n2cn0510 reporting.
  Task        4 on host n2cn0510 reporting.
  Task        5 on host n2cn0510 reporting.
  Task        6 on host n2cn0510 reporting.
  Task        7 on host n2cn0510 reporting.
  Task        8 on host n2cn0510 reporting.
  Task        9 on host n2cn0510 reporting.
  Task       10 on host n2cn0510 reporting.
  Task       11 on host n2cn0510 reporting.
  Task       12 on host n2cn0510 reporting.
  Task       13 on host n2cn0510 reporting.
  Task       14 on host n2cn0510 reporting.
  Task       15 on host n2cn0510 reporting.
  Task       16 on host n2cn0510 reporting.
  Task       17 on host n2cn0510 reporting.
  Task       18 on host n2cn0510 reporting.
  Task       19 on host n2cn0510 reporting.
  Task       20 on host n2cn0510 reporting.
  Task       21 on host n2cn0510 reporting.
  Task       22 on host n2cn0510 reporting.
  Task       23 on host n2cn0510 reporting.
  Task       24 on host n2cn0510 reporting.
  Task       25 on host n2cn0510 reporting.
  Task       26 on host n2cn0510 reporting.
  Task       27 on host n2cn0510 reporting.
  Task       28 on host n2cn0510 reporting.
  Task       29 on host n2cn0510 reporting.
  Task       30 on host n2cn0510 reporting.
  Task       31 on host n2cn0510 reporting.
  Task       32 on host n2cn0510 reporting.
  Task       33 on host n2cn0510 reporting.
  Task       34 on host n2cn0510 reporting.
  Task       35 on host n2cn0510 reporting.
  Task       36 on host n2cn0510 reporting.
  Task       37 on host n2cn0510 reporting.

  Performing system and environment tests:
  | Environment variable OMP_NUM_THREADS correctly set to 1.
  | Checking for ScaLAPACK...
  | Testing pdtran()...
  | All pdtran() tests passed.

  Obtaining array dimensions for all initial allocations:
  
  -----------------------------------------------------------------------
  Parsing control.in (first pass over file, find array dimensions only).
  The contents of control.in will be repeated verbatim below
  unless switched off by setting 'verbatim_writeout .false.' .
  in the first line of control.in .
  -----------------------------------------------------------------------
  
  #control.in header for database project
  #using def2-QVPZ basis for light and heavy elements
  
  #########################################
    xc                 pbe
    qpe_calc           gw
    hybrid_xc_coeff 0.0
    #RI_method v
    #spin               collinear
    #default_initial_moment 0.01
    spin none
  
    anacon_type  1
    n_anacon_par 128
    frequency_points 600
    contour_def_gw   3 23
    contour_eta 0.004
    state_lower_limit 1
    state_upper_limit 500
    print_self_energy 12 -20.0 0.0
  
    relativistic none
    override_relativity .true.
    partition_type rho_r2
    density_update_method density_matrix
  
    calc_spectral_func -20.0 0.0 0.01
    spectral_func_state 12
  
  #########################################
    occupation_type    gaussian 0.000001
    mixer              pulay
      n_max_pulay        10
      charge_mix_param   0.2
    sc_accuracy_rho    1E-5
    sc_accuracy_eev    1E-5
    sc_accuracy_etot   1E-5
    sc_iter_limit      400
  #########################################
    prodbas_threshold  1.e-5
    KS_method          serial
    empty_states       25000
    # Do not check for overlapping xxx matrix
    # Not recommended
    override_illconditioning .true.
  #########################################
  ################################################################################
  #
  #  FHI-aims code project
  #  VB, Fritz-Haber Institut, 2009
  #
  #  Suggested "light" defaults for O atom (to be pasted into control.in file)
  #  Be sure to double-check any results obtained with these settings for post-processing,
  #  e.g., with the "tight" defaults and larger basis sets.
  #
  ################################################################################
  ################################################################################
  #
  #  FHI-aims code project
  #  VB, Fritz-Haber Institut, 2007
  #
  #  Suggested "safe" defaults for O atom (to be pasted into control.in file)
  #
  ################################################################################
    species        O
  #     global species definitions
      nucleus             8
      mass                15.9994
  #
      l_hartree           8
  #
      cut_pot             4.0  2.0  1.0
      basis_dep_cutoff    0.d0
  #
      radial_base         36 7.0
      radial_multiplier   2
       angular_grids specified
        division   0.4087  110
        division   0.5181  194
        division   0.6184  302
        division   0.7315  434
        division   0.7934  590
        #division   0.9656  770
        #division   1.4041  974
        #outer_grid 974
        outer_grid 590
  #
  #  Definition of "minimal" basis
  #
  ################################################################################
  #     valence basis states
      valence      2  s   2.
      valence      2  p   4.
  #     ion occupancy
      ion_occ      2  s   1.
      ion_occ      2  p   3.
  ################################################################################
  #
  #  Suggested additional basis functions. For production calculations,
  #  uncomment them one after another (the most important basis functions are
  #  listed first).
  #
  #  Basis constructed for dimers: 0.5 A, 0.7 A, 1.0 A, 1.5 A, 2.5 A
  #
  ################################################################################
  # The default minimal basis should not be included
  include_min_basis .false.
  # Use spherical functions?
  pure_gauss .true.
  # O def2-QZVP
  gaussian 0 8
 116506.4690800              0.40383857939E-04
  17504.3497240              0.31255139004E-03
   3993.4513230              0.16341473495E-02
   1133.0063186              0.68283224757E-02
    369.99569594             0.24124410221E-01
    133.62074349             0.72730206154E-01
     52.035643649            0.17934429892
     21.461939313            0.33059588895
  gaussian 0 2
     89.835051252            0.96468652996E-01
     26.428010844            0.94117481120
  gaussian 0 1 9.2822824649
  gaussian 0 1 4.0947728533
  gaussian 0 1 1.3255349078
  gaussian 0 1 0.51877230787
  gaussian 0 1 0.19772676454
  gaussian 1 5
    191.15255810             0.25115697705E-02
     45.233356739            0.20039240864E-01
     14.353465922            0.93609064762E-01
      5.2422371832           0.30618127124
      2.0792418599           0.67810501439
  gaussian 1 1 0.84282371424
  gaussian 1 1 0.33617694891
  gaussian 1 1 0.12863997974
  gaussian 2 1 3.77500000
  gaussian 2 1 1.30000000
  gaussian 2 1 0.44400000
  gaussian 3 1 2.66600000
  gaussian 3 1 0.85900000
  gaussian 4 1 1.84600000
  
  
  -----------------------------------------------------------------------
  Completed first pass over input file control.in .
  -----------------------------------------------------------------------
  
  
  -----------------------------------------------------------------------
  Parsing geometry.in (first pass over file, find array dimensions only).
  The contents of geometry.in will be repeated verbatim below
  unless switched off by setting 'verbatim_writeout .false.' .
  in the first line of geometry.in .
  -----------------------------------------------------------------------
  
  atom  0.0000 0.0000 0.0000 O
  atom  1.0869 0.0000 0.6600 O
  atom -1.0869 0.0000 0.6600 O
  
  -----------------------------------------------------------------------
  Completed first pass over input file geometry.in .
  -----------------------------------------------------------------------
  

  Basic array size parameters:
  | Number of species                 :        1
  | Number of atoms                   :        3
  | Max. basis fn. angular momentum   :        4
  | Max. atomic/ionic basis occupied n:        2
  | Max. number of basis fn. types    :        1
  | Max. radial fns per species/type  :       24
  | Max. logarithmic grid size        :     1301
  | Max. radial integration grid size :       73
  | Max. angular integration grid size:      590
  | Max. angular grid division number :        8
  | Radial grid for Hartree potential :     1301
  | Number of spin channels           :        1

------------------------------------------------------------
          Reading file control.in.
------------------------------------------------------------
  XC: Using PBE gradient-corrected functionals.
  GW quasiparticle calculation of excited states will be started after the DFT/HF calculation.
  hybrid_xc_coeff: Mixing coefficient for hybrid-functional exact exchange modified to         0.00000000 .
  * WARNING: This change modifies the chosen exchange-correlation functional (keyword 'xc')
  * from its literature definition. Be sure to NEVER include such a line in any default control.in files!
  Spin treatment: No spin polarisation.
  Using Pade approximation for analytical continuation.
  Number of fitting parameters for analytical continuation :    128
  Number of frequency points used for the self-energy calculation:    600
  Contour deformation in GW for the levels:      3     to      23
  Broadening parameter eta:       0.004000
  Lower limit of the eigenstates for the self-energy correction :      1
  Upper limit of the eigenstates for the self-energy correction :    500
  Non-relativistic treatment of kinetic energy.
  override_relativity: Explicitly overriding any built-in relativity checks.
  If you use this flag, you should really know what you are doing.
  Partition function in integrals calculations: rho / r^2
  Spectral function will be calculated from:   -20.000   to        0.000  eV
  Occupation type: Gaussian broadening, width =   0.100000E-05 eV.
  Using pulay charge density mixing.
  Pulay mixing - number of memorized iterations:   10
  Charge density mixing - mixing parameter:     0.2000
  Convergence accuracy of self-consistent charge density:  0.1000E-04
  Convergence accuracy of sum of eigenvalues:  0.1000E-04
  Convergence accuracy of total energy:  0.1000E-04
  Maximum number of s.-c. iterations  :   400
  Threshold for auxiliary basis singularities:  0.1000E-04
  Kohn-Sham eigenvalues and eigenfunctions calculated by LAPACK via ELSI.
  Number of empty states per atom:    25000
  override_illconditioning: Explicitly overriding any built-in checks for an ill-conditioned overlap matrix.
  *** WARNING: If you use this flag, you should really know what you are doing.
  *** DO NOT keep this flag set by default in all your control.in files.

  Reading configuration options for species O                   .
  | Found nuclear charge :   8.0000
  | Found atomic mass :    15.999400000000000      amu
  | Found l_max for Hartree potential  :   8
  | Found cutoff potl. onset [A], width [A], scale factor :    4.00000    2.00000    1.00000
  | Threshold for basis-dependent cutoff potential is   0.000000E+00
  | Found data for basic radial integration grid :    36 points, outermost radius =    7.000 A
  | Found multiplier for basic radial grid :   2
  | Found angular grid specification: user-specified.
  | Specified grid contains     6 separate shells.
  | Check grid settings after all constraints further below.
  | Found free-atom valence shell :  2 s   2.000
  | Found free-atom valence shell :  2 p   4.000
  | No ionic wave fns used. Skipping ion_occ.
  | No ionic wave fns used. Skipping ion_occ.
  | Found request to include minimal basis fns. :     F
  | Found request to include pure gaussian fns. :     T
  | Found contracted cartesian Gaussian basis function :  L = 0 ,   8 elementary Gaussians:
  |   alpha = 0.116506E+06 weight = 0.403839E-04
  |   alpha = 0.175043E+05 weight = 0.312551E-03
  |   alpha = 0.399345E+04 weight = 0.163415E-02
  |   alpha = 0.113301E+04 weight = 0.682832E-02
  |   alpha = 0.369996E+03 weight = 0.241244E-01
  |   alpha = 0.133621E+03 weight = 0.727302E-01
  |   alpha = 0.520356E+02 weight = 0.179344E+00
  |   alpha = 0.214619E+02 weight = 0.330596E+00
  |   In terms of angular momentum, this radial function adds: 
  |     1 s-type basis function
  | Found contracted cartesian Gaussian basis function :  L = 0 ,   2 elementary Gaussians:
  |   alpha = 0.898351E+02 weight = 0.964687E-01
  |   alpha = 0.264280E+02 weight = 0.941175E+00
  |   In terms of angular momentum, this radial function adds: 
  |     1 s-type basis function
  | Found primitive cartesian Gaussian basis function :  0 0.928228E+01
  |   In terms of angular momentum, this radial function adds: 
  |     1 s-type basis function
  | Found primitive cartesian Gaussian basis function :  0 0.409477E+01
  |   In terms of angular momentum, this radial function adds: 
  |     1 s-type basis function
  | Found primitive cartesian Gaussian basis function :  0 0.132553E+01
  |   In terms of angular momentum, this radial function adds: 
  |     1 s-type basis function
  | Found primitive cartesian Gaussian basis function :  0 0.518772E+00
  |   In terms of angular momentum, this radial function adds: 
  |     1 s-type basis function
  | Found primitive cartesian Gaussian basis function :  0 0.197727E+00
  |   In terms of angular momentum, this radial function adds: 
  |     1 s-type basis function
  | Found contracted cartesian Gaussian basis function :  L = 1 ,   5 elementary Gaussians:
  |   alpha = 0.191153E+03 weight = 0.251157E-02
  |   alpha = 0.452334E+02 weight = 0.200392E-01
  |   alpha = 0.143535E+02 weight = 0.936091E-01
  |   alpha = 0.524224E+01 weight = 0.306181E+00
  |   alpha = 0.207924E+01 weight = 0.678105E+00
  |   In terms of angular momentum, this radial function adds: 
  |     3 p-type basis functions
  | Found primitive cartesian Gaussian basis function :  1 0.842824E+00
  |   In terms of angular momentum, this radial function adds: 
  |     3 p-type basis functions
  | Found primitive cartesian Gaussian basis function :  1 0.336177E+00
  |   In terms of angular momentum, this radial function adds: 
  |     3 p-type basis functions
  | Found primitive cartesian Gaussian basis function :  1 0.128640E+00
  |   In terms of angular momentum, this radial function adds: 
  |     3 p-type basis functions
  | Found primitive cartesian Gaussian basis function :  2 0.377500E+01
  |   In terms of angular momentum, this radial function adds: 
  |     5 d-type basis functions
  | Found primitive cartesian Gaussian basis function :  2 0.130000E+01
  |   In terms of angular momentum, this radial function adds: 
  |     5 d-type basis functions
  | Found primitive cartesian Gaussian basis function :  2 0.444000E+00
  |   In terms of angular momentum, this radial function adds: 
  |     5 d-type basis functions
  | Found primitive cartesian Gaussian basis function :  3 0.266600E+01
  |   In terms of angular momentum, this radial function adds: 
  |     7 f-type basis functions
  | Found primitive cartesian Gaussian basis function :  3 0.859000E+00
  |   In terms of angular momentum, this radial function adds: 
  |     7 f-type basis functions
  | Found primitive cartesian Gaussian basis function :  4 0.184600E+01
  |   In terms of angular momentum, this radial function adds: 
  |     9 g-type basis functions
  Species O                   : Missing cutoff potential type.
  Defaulting to exp(1/x)/(1-x)^2 type cutoff potential.
  Species O : No 'logarithmic' tag. Using default grid for free atom:
  | Default logarithmic grid data [bohr] : 0.1000E-03 0.1000E+03 0.1012E+01
  Species O : On-site basis accuracy parameter (for Gram-Schmidt orthonormalisation) not specified.
  Using default value basis_acc =  0.1000000E-03.
  Species O                   : Using default innermost maximum threshold i_radial=  2 for radial functions.
  Species O                   : Default cutoff onset for free atom density etc. is infinite
  since the product basis is used (hybrid functionals, Hartree-Fock, GW etc.).
  Species O                   : Basic radial grid will be enhanced according to radial_multiplier =   2, to contain    73 grid points.

  Finished reading input file 'control.in'.

------------------------------------------------------------


------------------------------------------------------------
          Reading geometry description geometry.in.
------------------------------------------------------------
  | The smallest distance between any two atoms is         1.27159412 AA.
  | The first atom of this pair is atom number                      1 .
  | The second atom of this pair is atom number                     2 .
  Input structure read successfully.
  The structure contains        3 atoms,  and a total of         24.000 electrons.

  Input geometry:
  | No unit cell requested.
  | Atomic structure:
  |       Atom                x [A]            y [A]            z [A]
  |    1: Species O             0.00000000        0.00000000        0.00000000
  |    2: Species O             1.08690000        0.00000000        0.66000000
  |    3: Species O            -1.08690000        0.00000000        0.66000000


  Finished reading input file 'geometry.in'.



  Consistency checks for stacksize environment parameter are next.

  | Maximum stacksize for task 0: unlimited
  | Maximum stacksize for task 1: unlimited
  | Maximum stacksize for task 2: unlimited
  | Maximum stacksize for task 3: unlimited
  | Maximum stacksize for task 4: unlimited
  | Maximum stacksize for task 5: unlimited
  | Maximum stacksize for task 6: unlimited
  | Maximum stacksize for task 7: unlimited
  | Maximum stacksize for task 8: unlimited
  | Maximum stacksize for task 9: unlimited
  | Maximum stacksize for task 10: unlimited
  | Maximum stacksize for task 11: unlimited
  | Maximum stacksize for task 12: unlimited
  | Maximum stacksize for task 13: unlimited
  | Maximum stacksize for task 14: unlimited
  | Maximum stacksize for task 15: unlimited
  | Maximum stacksize for task 16: unlimited
  | Maximum stacksize for task 17: unlimited
  | Maximum stacksize for task 18: unlimited
  | Maximum stacksize for task 19: unlimited
  | Maximum stacksize for task 20: unlimited
  | Maximum stacksize for task 21: unlimited
  | Maximum stacksize for task 22: unlimited
  | Maximum stacksize for task 23: unlimited
  | Maximum stacksize for task 24: unlimited
  | Maximum stacksize for task 25: unlimited
  | Maximum stacksize for task 26: unlimited
  | Maximum stacksize for task 27: unlimited
  | Maximum stacksize for task 28: unlimited
  | Maximum stacksize for task 29: unlimited
  | Maximum stacksize for task 30: unlimited
  | Maximum stacksize for task 31: unlimited
  | Maximum stacksize for task 32: unlimited
  | Maximum stacksize for task 33: unlimited
  | Maximum stacksize for task 34: unlimited
  | Maximum stacksize for task 35: unlimited
  | Maximum stacksize for task 36: unlimited
  | Maximum stacksize for task 37: unlimited
  | Current stacksize for task 0: unlimited
  | Current stacksize for task 1: unlimited
  | Current stacksize for task 2: unlimited
  | Current stacksize for task 3: unlimited
  | Current stacksize for task 4: unlimited
  | Current stacksize for task 5: unlimited
  | Current stacksize for task 6: unlimited
  | Current stacksize for task 7: unlimited
  | Current stacksize for task 8: unlimited
  | Current stacksize for task 9: unlimited
  | Current stacksize for task 10: unlimited
  | Current stacksize for task 11: unlimited
  | Current stacksize for task 12: unlimited
  | Current stacksize for task 13: unlimited
  | Current stacksize for task 14: unlimited
  | Current stacksize for task 15: unlimited
  | Current stacksize for task 16: unlimited
  | Current stacksize for task 17: unlimited
  | Current stacksize for task 18: unlimited
  | Current stacksize for task 19: unlimited
  | Current stacksize for task 20: unlimited
  | Current stacksize for task 21: unlimited
  | Current stacksize for task 22: unlimited
  | Current stacksize for task 23: unlimited
  | Current stacksize for task 24: unlimited
  | Current stacksize for task 25: unlimited
  | Current stacksize for task 26: unlimited
  | Current stacksize for task 27: unlimited
  | Current stacksize for task 28: unlimited
  | Current stacksize for task 29: unlimited
  | Current stacksize for task 30: unlimited
  | Current stacksize for task 31: unlimited
  | Current stacksize for task 32: unlimited
  | Current stacksize for task 33: unlimited
  | Current stacksize for task 34: unlimited
  | Current stacksize for task 35: unlimited
  | Current stacksize for task 36: unlimited
  | Current stacksize for task 37: unlimited

  Consistency checks for the contents of control.in are next.

  MPI_IN_PLACE appears to work with this MPI implementation.
  | Keeping use_mpi_in_place .true. (see manual).
  Explicit treatment of the Coulomb operator is needed, but the RI method is not specified.
  Coulomb operator: Defaulting to 'RI-V' resolution of identity - RI_type = V
  Species O: Using default value for prodbas_acc =   1.000000E-02.
  Species O: Using default value max_l_prodbas =     5.
 * Species O: Specified min. number of angular integration points is   110
 * The angular momenta for this species require   194 for RI_type 'V'. Increasing angular_min to   194.
 * Species O: Grid shell     1 contains only   110 angular integration points.
 * Increasing to angular_min =   194 integration points.
 * This change is related to the three-center integrals used in RI_method 'V'.
  Target number of points in a grid batch is not set. Defaulting to  100
  Method for grid partitioning is not set. Defaulting to parallel hash+maxmin partitioning.
  Batch size limit is not set. Defaulting to    200
  By default, will store active basis functions for each batch.
  If in need of memory, prune_basis_once .false. can be used to disable this option.
  communication_type for Hartree potential was not specified.
  Defaulting to calc_hartree .
  Pulay mixer: Number of initial linear mixing iterations not set.
  Defaulting to    0 iterations.
  Work space size for distributed Hartree potential not set.
  Defaulting to   0.200000E+03 MB.
  Algorithm-dependent basis array size parameters:
  | n_max_pulay                         :       10
  Presetting      1001 iterations before the initial mixing cycle
  is restarted anyway using the sc_init_iter criterion / keyword.
  Presetting a factor      1.000 between actual scf density residual
  and density convergence criterion sc_accuracy_rho below which sc_init_iter
  takes no effect.
  Calculation of forces was not defined in control.in. No forces will be calculated.
  Geometry relaxation not requested: no relaxation will be performed.
  No accuracy limit for integral partition fn. given. Defaulting to  0.1000E-14.
  No threshold value for u(r) in integrations given. Defaulting to  0.1000E-05.
  No accuracy for occupation numbers given. Defaulting to  0.1000E-12.
  No threshold value for occupation numbers given. Defaulting to  0.0000E+00.
  No accuracy for fermi level given. Defaulting to  0.1000E-19.
  Maximum # of iterations to find E_F not set. Defaulting to  200.
  Will not use alltoall communication since running on < 1024 CPUs.
  Threshold for basis singularities not set.
  Default threshold for basis singularities:  0.1000E-04
  Partitioning for Hartree potential was not defined. Using partition_type for integrals.
  | Reporting present value of keyword multip_moments_threshold  :       0.10000000E-09
  | This value may affect high angular momentum components of the Hartree potential in periodic systems.
  * Doing correlated calculations, so all empty single-particle states will be included.
  No q(lm)/r^(l+1) cutoff set for long-range Hartree potential.
  | Using default value of  0.100000E-09 .
  | Verify using the multipole_threshold keyword.
  Defaulting to new monopole extrapolation.
  Density update method: density matrix based density update selected.
  Charge integration errors on the 3D integration grid will be compensated
  by explicit normalization and distribution of residual charges.
  Use the "compensate_multipole_errors" flag to change this behaviour.
  Default to 1D ("use_logsbt") integrations for auxiliary 2-center integrals.
  Default onset of logarithmic r-grid for SBT is -38.000000000000
  Default onset of logarithmic k-grid for SBT is -25.000000000000
  Default range of logarithmic r- and k-grid for SBT is  45.000000000000
  Default number of logarithmic r- and k-grid for SBT is   4096
  *** Contour Deformation: Only support 2D parallization. Switching.
  Set 'collect_eigenvectors' to be '.true.' for GW/RPA/MP2, SCREX/COHSEX cluster calculations
  Set 'collect_eigenvectors' to be '.true.' for qpe_calc (quasiparticle energy).
  Set 'collect_eigenvectors' to be '.true.' for KS_method lapack_fast and serial.

  Consistency checks for the contents of geometry.in are next.

  Number of empty states per atom not set in control.in .
  | Since you are using a method that relies on the unoccupied spectrum
  | (MP2,GW,RPA et al.), will use the full Hamiltonian size (see below)
  | as the max. possible number of states (occupied plus empty).

  Structure-dependent array size parameters: 
  | Maximum number of distinct radial functions  :       17
  | Maximum number of basis functions            :      171
  | Number of Kohn-Sham states (occupied + empty):      171
------------------------------------------------------------

------------------------------------------------------------
          Preparing all fixed parts of the calculation.
------------------------------------------------------------
  Determining machine precision:
     2.2250738585072014E-308
  Setting up grids for atomic and cluster calculations.

  Creating wave function, potential, and density for free atoms.
  Runtime choices for atomic solver:
  | atomic solver xc        : PBE
  | compute density gradient: 1
  | compute kinetic density : F

  Species: O

  List of occupied orbitals and eigenvalues:
    n    l              occ      energy [Ha]    energy [eV]
    1    0           2.0000       -18.898644      -514.2583
    2    0           2.0000        -0.878848       -23.9147
    2    1           4.0000        -0.332128        -9.0377


  Adding cutoff potential to free-atom effective potential.
  Creating fixed part of basis set: Ionic, confined, hydrogenic.

  O                    Gaussian:

  List of cartesian Gaussian basis orbitals: 
    L    l
    0    0
    0    0
    0    0
    0    0
    0    0
    0    0
    0    0
    1    1
    1    1
    1    1
    1    1
    2    2
    2    2
    2    2
    3    3
    3    3
    4    4

  Creating atomic-like basis functions for current effective potential.
  Assembling full basis from fixed parts.
  | Species O : gaussian orbital   0 s accepted.
  | Species O : gaussian orbital   0 s accepted.
  | Species O : gaussian orbital   0 s accepted.
  | Species O : gaussian orbital   0 s accepted.
  | Species O : gaussian orbital   0 s accepted.
  | Species O : gaussian orbital   0 s accepted.
  | Species O : gaussian orbital   0 s accepted.
  | Species O : gaussian orbital   1 p accepted.
  | Species O : gaussian orbital   1 p accepted.
  | Species O : gaussian orbital   1 p accepted.
  | Species O : gaussian orbital   1 p accepted.
  | Species O : gaussian orbital   2 d accepted.
  | Species O : gaussian orbital   2 d accepted.
  | Species O : gaussian orbital   2 d accepted.
  | Species O : gaussian orbital   3 f accepted.
  | Species O : gaussian orbital   3 f accepted.
  | Species O : gaussian orbital   4 g accepted.

  Basis size parameters after reduction:
  | Total number of radial functions:       17
  | Total number of basis functions :      171

  Per-task memory consumption for arrays in subroutine allocate_ext:
  |           4.251124MB.
  Testing on-site integration grid accuracy.
  |  Species  Function  <phi|h_atom|phi> (log., in eV)  <phi|h_atom|phi> (rad., in eV)
           1        1               -362.5768878964               -361.9064466209 ***
           1        2               5562.5547625713               5575.7930874751 ***
           1        3               1025.0233784559               1025.9245856613 ***
           1        4                982.4978511341                983.5281042290 ***
           1        5                433.1899307944                433.5654311331 ***
           1        6                211.6154267980                211.7639894228 ***
           1        7                 95.6225149986                 95.6775254236 ***
           1        8                 18.1342168000                 18.1342171007
           1        9                 65.5300295478                 65.5300296997
           1       10                 49.0580174448                 49.0580169452
           1       11                 26.6733000437                 26.6732994427
           1       12                218.9177453526                218.9177453781
           1       13                147.8581850346                147.8581828102
           1       14                 71.7831007132                 71.7830993551
           1       15                249.7504167360                249.7504159711
           1       16                120.9441017008                120.9441015070
           1       17                235.2477364771                235.2477348478
 * Note: Onsite integrals marked "***" above are less accurate than
 * onsite_accuracy_threshold =    0.03000 eV. Usually, this is harmless.
 * However, one integral did have a negative value. This integral could be important.
 * When in doubt, tighten the "radial" and/or "radial_multiplier" flags to check.

  Preparing densities etc. for the partition functions (integrals / Hartree potential).

  Preparations completed.
  max(cpu_time)          :      0.112 s.
  Wall clock time (cpu1) :      0.114 s.
------------------------------------------------------------

  Initializing index lists of integration centers etc. from given atomic structure:
  | Number of centers in hartree potential         :         3
  | Number of centers in hartree multipole         :         3
  | Number of centers in electron density summation:         3
  | Number of centers in basis integrals           :         3
  | Number of centers in integrals                 :         3
  | Number of centers in hamiltonian               :         3

------------------------------------------------------------
          Begin self-consistency loop: Initialization.

          Date     :  20240515, Time     :  102244.099
------------------------------------------------------------
  * Using 38 tasks for Scalapack Eigenvalue solver.
  Detailed listing of tasks and assigned k-points:
  (for non-periodic systems, the "k-point" denotes an internal label only)
   Task     0 k-point     1 on n2cn0510
   Task     1 k-point     1 on n2cn0510
   Task     2 k-point     1 on n2cn0510
   Task     3 k-point     1 on n2cn0510
   Task     4 k-point     1 on n2cn0510
   Task     5 k-point     1 on n2cn0510
   Task     6 k-point     1 on n2cn0510
   Task     7 k-point     1 on n2cn0510
   Task     8 k-point     1 on n2cn0510
   Task     9 k-point     1 on n2cn0510
   Task    10 k-point     1 on n2cn0510
   Task    11 k-point     1 on n2cn0510
   Task    12 k-point     1 on n2cn0510
   Task    13 k-point     1 on n2cn0510
   Task    14 k-point     1 on n2cn0510
   Task    15 k-point     1 on n2cn0510
   Task    16 k-point     1 on n2cn0510
   Task    17 k-point     1 on n2cn0510
   Task    18 k-point     1 on n2cn0510
   Task    19 k-point     1 on n2cn0510
   Task    20 k-point     1 on n2cn0510
   Task    21 k-point     1 on n2cn0510
   Task    22 k-point     1 on n2cn0510
   Task    23 k-point     1 on n2cn0510
   Task    24 k-point     1 on n2cn0510
   Task    25 k-point     1 on n2cn0510
   Task    26 k-point     1 on n2cn0510
   Task    27 k-point     1 on n2cn0510
   Task    28 k-point     1 on n2cn0510
   Task    29 k-point     1 on n2cn0510
   Task    30 k-point     1 on n2cn0510
   Task    31 k-point     1 on n2cn0510
   Task    32 k-point     1 on n2cn0510
   Task    33 k-point     1 on n2cn0510
   Task    34 k-point     1 on n2cn0510
   Task    35 k-point     1 on n2cn0510
   Task    36 k-point     1 on n2cn0510
   Task    37 k-point     1 on n2cn0510
  Tasks:    38 split into     19 X      2 BLACS grid
  Calculating block size based on n_basis =          171  max_nprow =           19  max_npcol =            2
  ScaLAPACK block size set to:            8
  Allocating        0.011 MB for ovlp
  Allocating        0.011 MB for ham
  Allocating        0.011 MB for eigenvec
  Required Scalapack workspace - INTEGER:         1215  REAL:          4185
  Partitioning the integration grid into batches with parallel hashing+maxmin method.
  | Number of batches:      944
  | Maximal batch size:     197
  | Minimal batch size:      29
  | Average batch size:      92.371
  | Standard deviation of batch sizes:      32.790

  Integration load balanced across    38 MPI tasks.
  Work distribution over tasks is as follows:
  Task     0 has       2309 integration points.
  Task     1 has       2406 integration points.
  Task     2 has       2296 integration points.
  Task     3 has       2311 integration points.
  Task     4 has       2342 integration points.
  Task     5 has       2347 integration points.
  Task     6 has       2288 integration points.
  Task     7 has       2239 integration points.
  Task     8 has       2307 integration points.
  Task     9 has       2238 integration points.
  Task    10 has       2299 integration points.
  Task    11 has       2280 integration points.
  Task    12 has       2314 integration points.
  Task    13 has       2304 integration points.
  Task    14 has       2337 integration points.
  Task    15 has       2275 integration points.
  Task    16 has       2316 integration points.
  Task    17 has       2307 integration points.
  Task    18 has       2238 integration points.
  Task    19 has       2295 integration points.
  Task    20 has       2277 integration points.
  Task    21 has       2243 integration points.
  Task    22 has       2309 integration points.
  Task    23 has       2233 integration points.
  Task    24 has       2398 integration points.
  Task    25 has       2292 integration points.
  Task    26 has       2240 integration points.
  Task    27 has       2290 integration points.
  Task    28 has       2268 integration points.
  Task    29 has       2236 integration points.
  Task    30 has       2367 integration points.
  Task    31 has       2294 integration points.
  Task    32 has       2267 integration points.
  Task    33 has       2347 integration points.
  Task    34 has       2233 integration points.
  Task    35 has       2306 integration points.
  Task    36 has       2276 integration points.
  Task    37 has       2274 integration points.
  Initializing partition tables, free-atom densities, potentials, etc. across the integration grid (initialize_grid_storage).
  | Net number of integration points:    87198
  | of which are non-zero points    :    86954
  Renormalizing the initial density to the exact electron count on the 3D integration grid.
  | Initial density: Formal number of electrons (from input files) :      24.0000000000
  | Integrated number of electrons on 3D grid     :      23.9999998523
  | Charge integration error                      :      -0.0000001477
  | Normalization factor for density and gradient :       1.0000000062
  Renormalizing the free-atom superposition density to the exact electron count on the 3D integration grid.
  | Formal number of electrons (from input files) :      24.0000000000
  | Integrated number of electrons on 3D grid     :      23.9999998523
  | Charge integration error                      :      -0.0000001477
  | Normalization factor for density and gradient :       1.0000000062
  Obtaining max. number of non-zero basis functions in each batch (get_n_compute_maxes).
  | Maximal number of non-zero basis functions:      164 in task     0
  | Maximal number of non-zero basis functions:      166 in task     1
  | Maximal number of non-zero basis functions:      165 in task     2
  | Maximal number of non-zero basis functions:      164 in task     3
  | Maximal number of non-zero basis functions:      164 in task     4
  | Maximal number of non-zero basis functions:      163 in task     5
  | Maximal number of non-zero basis functions:      166 in task     6
  | Maximal number of non-zero basis functions:      165 in task     7
  | Maximal number of non-zero basis functions:      165 in task     8
  | Maximal number of non-zero basis functions:      166 in task     9
  | Maximal number of non-zero basis functions:      166 in task    10
  | Maximal number of non-zero basis functions:      165 in task    11
  | Maximal number of non-zero basis functions:      164 in task    12
  | Maximal number of non-zero basis functions:      164 in task    13
  | Maximal number of non-zero basis functions:      164 in task    14
  | Maximal number of non-zero basis functions:      166 in task    15
  | Maximal number of non-zero basis functions:      165 in task    16
  | Maximal number of non-zero basis functions:      165 in task    17
  | Maximal number of non-zero basis functions:      165 in task    18
  | Maximal number of non-zero basis functions:      162 in task    19
  | Maximal number of non-zero basis functions:      164 in task    20
  | Maximal number of non-zero basis functions:      165 in task    21
  | Maximal number of non-zero basis functions:      165 in task    22
  | Maximal number of non-zero basis functions:      164 in task    23
  | Maximal number of non-zero basis functions:      166 in task    24
  | Maximal number of non-zero basis functions:      164 in task    25
  | Maximal number of non-zero basis functions:      166 in task    26
  | Maximal number of non-zero basis functions:      165 in task    27
  | Maximal number of non-zero basis functions:      165 in task    28
  | Maximal number of non-zero basis functions:      165 in task    29
  | Maximal number of non-zero basis functions:      165 in task    30
  | Maximal number of non-zero basis functions:      164 in task    31
  | Maximal number of non-zero basis functions:      165 in task    32
  | Maximal number of non-zero basis functions:      166 in task    33
  | Maximal number of non-zero basis functions:      165 in task    34
  | Maximal number of non-zero basis functions:      164 in task    35
  | Maximal number of non-zero basis functions:      163 in task    36
  | Maximal number of non-zero basis functions:      164 in task    37
  Allocating        0.223 MB for KS_eigenvector
  Integrating Hamiltonian matrix: batch-based integration.
  Time summed over all CPUs for integration: real work        0.430 s, elapsed        0.467 s
  Integrating overlap matrix.
  Time summed over all CPUs for integration: real work        0.168 s, elapsed        0.476 s
  Deallocating overlap matrix.

  Updating Kohn-Sham eigenvalues and eigenvectors using ELSI and the ELPA eigensolver.
  Overlap matrix is not singular
  | Lowest and highest eigenvalues :  0.4309E-03,  0.2909E+01
  Finished singularity check of overlap matrix
  | Time :     0.009 s
  Starting ELPA eigensolver
  Finished Cholesky decomposition
  | Time :     0.003 s
  Finished transformation to standard eigenproblem
  | Time :     0.001 s
  Finished solving standard eigenproblem
  | Time :     0.008 s
  Finished back-transformation of eigenvectors
  | Time :     0.000 s

  Obtaining occupation numbers and electronic chemical potential using ELSI.
  | Note that, for insulating systems, the printed 'chemical potential' value is not uniquely defined.
  | It can be anywhere in the energy gap, as long as it correctly separates occupied and unoccupied states.
  | In systems with a gap, the physically relevant chemical potential is the VBM or HOMO.

  | Chemical potential (Fermi level):    -6.47272253 eV
  Writing Kohn-Sham eigenvalues.

  State    Occupation    Eigenvalue [Ha]    Eigenvalue [eV]
      1       2.00000         -18.944522         -515.50667
      2       2.00000         -18.917645         -514.77532
      3       2.00000         -18.917645         -514.77531
      4       2.00000          -1.221769          -33.24603
      5       2.00000          -1.009344          -27.46566
      6       2.00000          -0.735436          -20.01223
      7       2.00000          -0.562184          -15.29781
      8       2.00000          -0.529491          -14.40817
      9       2.00000          -0.516686          -14.05975
     10       2.00000          -0.360994           -9.82314
     11       2.00000          -0.341903           -9.30367
     12       2.00000          -0.323800           -8.81105
     13       0.00000          -0.222051           -6.04233
     14       0.00000           0.021251            0.57826
     15       0.00000           0.083391            2.26918
     16       0.00000           0.176874            4.81299
     17       0.00000           0.185869            5.05774
     18       0.00000           0.187096            5.09115
     19       0.00000           0.227809            6.19901
     20       0.00000           0.252059            6.85886
     21       0.00000           0.253733            6.90443
     22       0.00000           0.267229            7.27166
     23       0.00000           0.311107            8.46566
     24       0.00000           0.351098            9.55386
     25       0.00000           0.352634            9.59565
     26       0.00000           0.588230           16.00655
     27       0.00000           0.686503           18.68069
     28       0.00000           0.755536           20.55917
     29       0.00000           0.840171           22.86221
     30       0.00000           0.846704           23.03999
     31       0.00000           0.972688           26.46820
     32       0.00000           1.006567           27.39009
     33       0.00000           1.076063           29.28117
     34       0.00000           1.080741           29.40847
     35       0.00000           1.143004           31.10273
     36       0.00000           1.172585           31.90767
     37       0.00000           1.183996           32.21817
     38       0.00000           1.197136           32.57574
     39       0.00000           1.200988           32.68055
     40       0.00000           1.239725           33.73464
     41       0.00000           1.246848           33.92846
     42       0.00000           1.252569           34.08413
     43       0.00000           1.267196           34.48215
     44       0.00000           1.520945           41.38701
     45       0.00000           1.576828           42.90768
     46       0.00000           1.645280           44.77035
     47       0.00000           1.649421           44.88304
     48       0.00000           1.671233           45.47657
     49       0.00000           1.807490           49.18431
     50       0.00000           1.830105           49.79968
     51       0.00000           1.900321           51.71037
     52       0.00000           2.552193           69.44871
     53       0.00000           2.625351           71.43943
     54       0.00000           2.651418           72.14875
     55       0.00000           2.747156           74.75391
     56       0.00000           2.851762           77.60040
     57       0.00000           2.883675           78.46878
     58       0.00000           2.966235           80.71537
     59       0.00000           2.984985           81.22556
     60       0.00000           2.994806           81.49281
     61       0.00000           3.017572           82.11230
     62       0.00000           3.036936           82.63923
     63       0.00000           3.201745           87.12391
     64       0.00000           3.247532           88.36985
     65       0.00000           3.252106           88.49430
     66       0.00000           3.351323           91.19414
     67       0.00000           3.487734           94.90606
     68       0.00000           3.492732           95.04208
     69       0.00000           3.545043           96.46553
     70       0.00000           3.555618           96.75330
     71       0.00000           3.631084           98.80682
     72       0.00000           3.641550           99.09162
     73       0.00000           3.733786          101.60148
     74       0.00000           3.779022          102.83241
     75       0.00000           3.801361          103.44030
     76       0.00000           3.817601          103.88220
     77       0.00000           3.892303          105.91495
     78       0.00000           3.964059          107.86753
     79       0.00000           3.976430          108.20415
     80       0.00000           4.010145          109.12159
     81       0.00000           4.087790          111.23442
     82       0.00000           4.102095          111.62369
     83       0.00000           4.154231          113.04237
     84       0.00000           4.319570          117.54147
     85       0.00000           4.371873          118.96471
     86       0.00000           4.412783          120.07794
     87       0.00000           4.491484          122.21950
     88       0.00000           4.501078          122.48055
     89       0.00000           4.642944          126.34095
     90       0.00000           4.656066          126.69801
     91       0.00000           4.706356          128.06647
     92       0.00000           4.788962          130.31430
     93       0.00000           4.981087          135.54229
     94       0.00000           5.044072          137.25619
     95       0.00000           5.053473          137.51201
     96       0.00000           5.188796          141.19432
     97       0.00000           5.605251          152.52663
     98       0.00000           7.097429          193.13088
     99       0.00000           7.206337          196.09441
    100       0.00000           7.825986          212.95592
    101       0.00000           7.958299          216.55632
    102       0.00000           8.154410          221.89279
    103       0.00000           8.162097          222.10195
    104       0.00000           8.227772          223.88906
    105       0.00000           8.260729          224.78589
    106       0.00000           8.268981          225.01043
    107       0.00000           8.414419          228.96800
    108       0.00000           8.503995          231.40547
    109       0.00000           8.620065          234.56390
    110       0.00000           8.620462          234.57471
    111       0.00000           8.622445          234.62866
    112       0.00000           8.622711          234.63592
    113       0.00000           8.701787          236.78768
    114       0.00000           8.735627          237.70851
    115       0.00000           8.808732          239.69779
    116       0.00000           8.929939          242.99600
    117       0.00000           9.224917          251.02276
    118       0.00000           9.373609          255.06889
    119       0.00000           9.455085          257.28596
    120       0.00000           9.978611          271.53182
    121       0.00000          10.180489          277.02521
    122       0.00000          10.191388          277.32177
    123       0.00000          10.227305          278.29914
    124       0.00000          10.541013          286.83556
    125       0.00000          10.587982          288.11366
    126       0.00000          10.613887          288.81856
    127       0.00000          10.641353          289.56596
    128       0.00000          10.656921          289.98956
    129       0.00000          10.680334          290.62668
    130       0.00000          10.691663          290.93495
    131       0.00000          10.710386          291.44444
    132       0.00000          10.747709          292.46005
    133       0.00000          10.864319          295.63316
    134       0.00000          10.867957          295.73215
    135       0.00000          11.072346          301.29385
    136       0.00000          11.119352          302.57296
    137       0.00000          11.179157          304.20034
    138       0.00000          11.196422          304.67015
    139       0.00000          11.211076          305.06890
    140       0.00000          11.233431          305.67720
    141       0.00000          11.249137          306.10460
    142       0.00000          11.284752          307.07374
    143       0.00000          11.311445          307.80009
    144       0.00000          11.408227          310.43365
    145       0.00000          11.422284          310.81615
    146       0.00000          11.510427          313.21467
    147       0.00000          11.548098          314.23972
    148       0.00000          11.626418          316.37094
    149       0.00000          11.644324          316.85818
    150       0.00000          11.663138          317.37013
    151       0.00000          11.714455          318.76654
    152       0.00000          11.750080          319.73594
    153       0.00000          11.807888          321.30899
    154       0.00000          11.815940          321.52809
    155       0.00000          12.010154          326.81293
    156       0.00000          12.096869          329.17255
    157       0.00000          13.025218          354.43421
    158       0.00000          13.141184          357.58981
    159       0.00000          13.173368          358.46558
    160       0.00000          13.313973          362.29163
    161       0.00000          13.373491          363.91119
    162       0.00000          13.497566          367.28746
    163       0.00000          14.129639          384.48705
    164       0.00000          14.820071          403.27464
    165       0.00000          14.895198          405.31897
    166       0.00000          46.815272         1273.90837
    167       0.00000          47.264975         1286.14540
    168       0.00000          47.575520         1294.59577
    169       0.00000         251.883262         6854.09229
    170       0.00000         252.402378         6868.21817
    171       0.00000         252.766309         6878.12122

  Highest occupied state (VBM) at     -8.81104580 eV
  | Occupation number:      2.00000000

  Lowest unoccupied state (CBM) at    -6.04232656 eV
  | Occupation number:      0.00000000

  Overall HOMO-LUMO gap:      2.76871923 eV.
  Calculating total energy contributions from superposition of free atom densities.

  Total energy components:
  | Sum of eigenvalues            :        -124.76284140 Ha       -3394.96964867 eV
  | XC energy correction          :         -25.19608909 Ha        -685.62046806 eV
  | XC potential correction       :          32.39728446 Ha         881.57496418 eV
  | Free-atom electrostatic energy:        -107.77455399 Ha       -2932.69482788 eV
  | Hartree energy correction     :          -0.00000000 Ha          -0.00000000 eV
  | Entropy correction            :          -0.00000000 Ha          -0.00000000 eV
  | ---------------------------
  | Total energy                  :        -225.33620002 Ha       -6131.70998043 eV
  | Total energy, T -> 0          :        -225.33620002 Ha       -6131.70998043 eV  <-- do not rely on this value for anything but (periodic) metals
  | Electronic free energy        :        -225.33620002 Ha       -6131.70998043 eV

  Derived energy quantities:
  | Kinetic energy                :         224.70959637 Ha        6114.65922763 eV
  | Electrostatic energy          :        -424.84970730 Ha      -11560.74874000 eV
  | Energy correction for multipole
  | error in Hartree potential    :           0.00000000 Ha           0.00000000 eV
  | Sum of eigenvalues per atom                           :       -1131.65654956 eV
  | Total energy (T->0) per atom                          :       -2043.90332681 eV  <-- do not rely on this value for anything but (periodic) metals
  | Electronic free energy per atom                       :       -2043.90332681 eV
  Initialize hartree_potential_storage
  Max. number of atoms included in rho_multipole:            3

  End scf initialization - timings             :  max(cpu_time)    wall_clock(cpu1)
  | Time for scf. initialization                :        0.089 s           0.091 s
  | Boundary condition initialization           :        0.000 s           0.000 s
  | Integration                                 :        0.026 s           0.027 s
  | Solution of K.-S. eqns.                     :        0.023 s           0.025 s
  | Grid partitioning                           :        0.027 s           0.027 s
  | Preloading free-atom quantities on grid     :        0.007 s           0.008 s
  | Free-atom superposition energy              :        0.002 s           0.002 s
  | Total energy evaluation                     :        0.000 s           0.000 s

  Partial memory accounting:
  | Current value for overall tracked memory usage:
  |   Minimum:        0.351 MB (on task  7)
  |   Maximum:        0.368 MB (on task  0)
  |   Average:        0.354 MB
  | Peak value for overall tracked memory usage:
  |   Minimum:        1.398 MB (on task 19 after allocating wave)
  |   Maximum:        1.441 MB (on task  1 after allocating wave)
  |   Average:        1.419 MB
  | Largest tracked array allocation so far:
  |   Minimum:        0.245 MB (H_times_psi on task  5)
  |   Maximum:        0.445 MB (all_coords on task 18)
  |   Average:        0.258 MB
  Note:  These values currently only include a subset of arrays which are explicitly tracked.
  The "true" memory usage will be greater.
------------------------------------------------------------
  Evaluating new KS density using the density matrix
  Evaluating density matrix
  Finished density matrix calculation
  | Time :     0.000 s
  Time summed over all CPUs for getting density from density matrix: real work        0.653 s, elapsed        0.745 s
  Integration grid: deviation in total charge (<rho> - N_e) =   7.105427E-15

  Time for density update prior                :  max(cpu_time)    wall_clock(cpu1)
  | self-consistency iterative process          :        0.024 s           0.024 s

------------------------------------------------------------
          Begin self-consistency iteration #    1

  Date     :  20240515, Time     :  102244.215
------------------------------------------------------------
  Pulay mixing of updated and previous charge densities.
  Renormalizing the density to the exact electron count on the 3D integration grid.
  | Formal number of electrons (from input files) :      24.0000000000
  | Integrated number of electrons on 3D grid     :      24.0000000000
  | Charge integration error                      :      -0.0000000000
  | Normalization factor for density and gradient :       1.0000000000

  Evaluating partitioned Hartree potential by multipole expansion.
  | Original multipole sum: apparent total charge =  -0.288531E-13
  | Sum of charges compensated after spline to logarithmic grids =   0.198571E-06
  | Analytical far-field extrapolation by fixed multipoles:
  | Hartree multipole sum: apparent total charge =  -0.288654E-13
  Summing up the Hartree potential.
  Time summed over all CPUs for potential: real work        0.211 s, elapsed        0.247 s
  | RMS charge density error from multipole expansion :   0.370583E-03

  Integrating Hamiltonian matrix: batch-based integration.
  Time summed over all CPUs for integration: real work        0.391 s, elapsed        0.459 s

  Updating Kohn-Sham eigenvalues and eigenvectors using ELSI and the ELPA eigensolver.
  Starting ELPA eigensolver
  Finished transformation to standard eigenproblem
  | Time :     0.001 s
  Finished solving standard eigenproblem
  | Time :     0.008 s
  Finished back-transformation of eigenvectors
  | Time :     0.001 s

  Obtaining occupation numbers and electronic chemical potential using ELSI.
  | Note that, for insulating systems, the printed 'chemical potential' value is not uniquely defined.
  | It can be anywhere in the energy gap, as long as it correctly separates occupied and unoccupied states.
  | In systems with a gap, the physically relevant chemical potential is the VBM or HOMO.

  | Chemical potential (Fermi level):    -7.40978424 eV
  Writing Kohn-Sham eigenvalues.

  State    Occupation    Eigenvalue [Ha]    Eigenvalue [eV]
      1       2.00000         -19.048241         -518.32901
      2       2.00000         -18.864236         -513.32197
      3       2.00000         -18.864236         -513.32197
      4       2.00000          -1.252621          -34.08556
      5       2.00000          -1.010039          -27.48456
      6       2.00000          -0.731224          -19.89763
      7       2.00000          -0.555005          -15.10246
      8       2.00000          -0.544740          -14.82313
      9       2.00000          -0.543898          -14.80021
     10       2.00000          -0.340684           -9.27050
     11       2.00000          -0.317047           -8.62729
     12       2.00000          -0.312151           -8.49407
     13       0.00000          -0.230492           -6.27199
     14       0.00000           0.009614            0.26161
     15       0.00000           0.072402            1.97015
     16       0.00000           0.170103            4.62874
     17       0.00000           0.184499            5.02046
     18       0.00000           0.185422            5.04559
     19       0.00000           0.232142            6.31692
     20       0.00000           0.257620            7.01018
     21       0.00000           0.258397            7.03135
     22       0.00000           0.271379            7.38460
     23       0.00000           0.304927            8.29748
     24       0.00000           0.347310            9.45077
     25       0.00000           0.353428            9.61726
     26       0.00000           0.580109           15.78557
     27       0.00000           0.688834           18.74412
     28       0.00000           0.749752           20.40178
     29       0.00000           0.838295           22.81117
     30       0.00000           0.840514           22.87154
     31       0.00000           0.976954           26.58426
     32       0.00000           1.003922           27.31811
     33       0.00000           1.078321           29.34260
     34       0.00000           1.081663           29.43354
     35       0.00000           1.143054           31.10409
     36       0.00000           1.160266           31.57245
     37       0.00000           1.174998           31.97332
     38       0.00000           1.203905           32.75993
     39       0.00000           1.211026           32.95369
     40       0.00000           1.247010           33.93286
     41       0.00000           1.260665           34.30443
     42       0.00000           1.262027           34.34150
     43       0.00000           1.265009           34.42266
     44       0.00000           1.527492           41.56517
     45       0.00000           1.558757           42.41595
     46       0.00000           1.636350           44.52735
     47       0.00000           1.641858           44.67723
     48       0.00000           1.677350           45.64302
     49       0.00000           1.809095           49.22799
     50       0.00000           1.820104           49.52755
     51       0.00000           1.888597           51.39135
     52       0.00000           2.542972           69.19779
     53       0.00000           2.612923           71.10124
     54       0.00000           2.636549           71.74416
     55       0.00000           2.731455           74.32668
     56       0.00000           2.841769           77.32848
     57       0.00000           2.881656           78.41386
     58       0.00000           2.972758           80.89285
     59       0.00000           2.989741           81.35501
     60       0.00000           2.995027           81.49884
     61       0.00000           3.017194           82.10204
     62       0.00000           3.043804           82.82612
     63       0.00000           3.203243           87.16469
     64       0.00000           3.232584           87.96310
     65       0.00000           3.238434           88.12227
     66       0.00000           3.347826           91.09898
     67       0.00000           3.484800           94.82625
     68       0.00000           3.508801           95.47932
     69       0.00000           3.557094           96.79347
     70       0.00000           3.568441           97.10222
     71       0.00000           3.652838           99.39878
     72       0.00000           3.656217           99.49074
     73       0.00000           3.710872          100.97798
     74       0.00000           3.775698          102.74197
     75       0.00000           3.799483          103.38919
     76       0.00000           3.806344          103.57588
     77       0.00000           3.889663          105.84312
     78       0.00000           3.951686          107.53085
     79       0.00000           3.968710          107.99409
     80       0.00000           4.001679          108.89122
     81       0.00000           4.085400          111.16940
     82       0.00000           4.106683          111.74852
     83       0.00000           4.156113          113.09358
     84       0.00000           4.323768          117.65571
     85       0.00000           4.348502          118.32876
     86       0.00000           4.428126          120.49543
     87       0.00000           4.490460          122.19163
     88       0.00000           4.501690          122.49721
     89       0.00000           4.657062          126.72510
     90       0.00000           4.658390          126.76123
     91       0.00000           4.695192          127.76268
     92       0.00000           4.786375          130.24390
     93       0.00000           4.981024          135.54057
     94       0.00000           5.041216          137.17846
     95       0.00000           5.056558          137.59594
     96       0.00000           5.167172          140.60591
     97       0.00000           5.604170          152.49724
     98       0.00000           7.078522          192.61638
     99       0.00000           7.186749          195.56139
    100       0.00000           7.812760          212.59602
    101       0.00000           7.942628          216.12992
    102       0.00000           8.137792          221.44059
    103       0.00000           8.143264          221.58948
    104       0.00000           8.209037          223.37927
    105       0.00000           8.243903          224.32801
    106       0.00000           8.247404          224.42328
    107       0.00000           8.396711          228.48614
    108       0.00000           8.493758          231.12692
    109       0.00000           8.641952          235.15947
    110       0.00000           8.642404          235.17177
    111       0.00000           8.644374          235.22539
    112       0.00000           8.644634          235.23245
    113       0.00000           8.714427          237.13163
    114       0.00000           8.738901          237.79759
    115       0.00000           8.816742          239.91576
    116       0.00000           8.928445          242.95536
    117       0.00000           9.227331          251.08844
    118       0.00000           9.361291          254.73368
    119       0.00000           9.446282          257.04641
    120       0.00000           9.956999          270.94372
    121       0.00000          10.166692          276.64977
    122       0.00000          10.168119          276.68860
    123       0.00000          10.210268          277.83553
    124       0.00000          10.536735          286.71914
    125       0.00000          10.599199          288.41887
    126       0.00000          10.603525          288.53659
    127       0.00000          10.657530          290.00614
    128       0.00000          10.686442          290.79289
    129       0.00000          10.696841          291.07587
    130       0.00000          10.703410          291.25462
    131       0.00000          10.720902          291.73060
    132       0.00000          10.734826          292.10947
    133       0.00000          10.881683          296.10566
    134       0.00000          10.890288          296.33981
    135       0.00000          11.054297          300.80274
    136       0.00000          11.104942          302.18085
    137       0.00000          11.177781          304.16290
    138       0.00000          11.189775          304.48927
    139       0.00000          11.192091          304.55229
    140       0.00000          11.227271          305.50958
    141       0.00000          11.253516          306.22376
    142       0.00000          11.261712          306.44677
    143       0.00000          11.300929          307.51393
    144       0.00000          11.392445          310.00419
    145       0.00000          11.451418          311.60894
    146       0.00000          11.497143          312.85319
    147       0.00000          11.567293          314.76205
    148       0.00000          11.641537          316.78235
    149       0.00000          11.646139          316.90757
    150       0.00000          11.668751          317.52287
    151       0.00000          11.678527          317.78889
    152       0.00000          11.741409          319.49999
    153       0.00000          11.823002          321.72026
    154       0.00000          11.828366          321.86621
    155       0.00000          12.016644          326.98952
    156       0.00000          12.088474          328.94412
    157       0.00000          13.013701          354.12081
    158       0.00000          13.129689          357.27701
    159       0.00000          13.177125          358.56781
    160       0.00000          13.290628          361.65639
    161       0.00000          13.377860          364.03009
    162       0.00000          13.525747          368.05431
    163       0.00000          14.087020          383.32732
    164       0.00000          14.798409          402.68520
    165       0.00000          14.870183          404.63828
    166       0.00000          46.822974         1274.11796
    167       0.00000          47.312029         1287.42582
    168       0.00000          47.522543         1293.15420
    169       0.00000         251.892190         6854.33523
    170       0.00000         252.455382         6869.66046
    171       0.00000         252.705241         6876.45948

  Highest occupied state (VBM) at     -8.49406804 eV
  | Occupation number:      2.00000000

  Lowest unoccupied state (CBM) at    -6.27199490 eV
  | Occupation number:      0.00000000

  Overall HOMO-LUMO gap:      2.22207314 eV.

  Total energy components:
  | Sum of eigenvalues            :        -124.76824442 Ha       -3395.11667220 eV
  | XC energy correction          :         -25.22045874 Ha        -686.28359999 eV
  | XC potential correction       :          32.42879230 Ha         882.43233625 eV
  | Free-atom electrostatic energy:        -107.77455399 Ha       -2932.69482788 eV
  | Hartree energy correction     :           0.04209021 Ha           1.14533293 eV
  | Entropy correction            :          -0.00000000 Ha          -0.00000000 eV
  | ---------------------------
  | Total energy                  :        -225.29237463 Ha       -6130.51743089 eV
  | Total energy, T -> 0          :        -225.29237463 Ha       -6130.51743089 eV  <-- do not rely on this value for anything but (periodic) metals
  | Electronic free energy        :        -225.29237463 Ha       -6130.51743089 eV

  Derived energy quantities:
  | Kinetic energy                :         224.75261888 Ha        6115.82992972 eV
  | Electrostatic energy          :        -424.82453477 Ha      -11560.06376062 eV
  | Energy correction for multipole
  | error in Hartree potential    :          -0.00028484 Ha          -0.00775084 eV
  | Sum of eigenvalues per atom                           :       -1131.70555740 eV
  | Total energy (T->0) per atom                          :       -2043.50581030 eV  <-- do not rely on this value for anything but (periodic) metals
  | Electronic free energy per atom                       :       -2043.50581030 eV
  Evaluating new KS density using the density matrix
  Evaluating density matrix
  Finished density matrix calculation
  | Time :     0.001 s
  Time summed over all CPUs for getting density from density matrix: real work        0.612 s, elapsed        0.682 s
  Integration grid: deviation in total charge (<rho> - N_e) =   7.105427E-15

  Self-consistency convergence accuracy:
  | Change of charge density      :  0.4000E+00
  | Change of unmixed KS density  :  0.1562E+02
  | Change of sum of eigenvalues  : -0.1470E+00 eV
  | Change of total energy        :  0.1193E+01 eV


------------------------------------------------------------
  End self-consistency iteration #     1       :  max(cpu_time)    wall_clock(cpu1)
  | Time for this iteration                     :        0.059 s           0.059 s
  | Charge density update                       :        0.020 s           0.021 s
  | Density mixing                              :        0.000 s           0.000 s
  | Hartree multipole update                    :        0.002 s           0.003 s
  | Hartree multipole summation                 :        0.009 s           0.009 s
  | Integration                                 :        0.013 s           0.013 s
  | Solution of K.-S. eqns.                     :        0.012 s           0.012 s
  | Total energy evaluation                     :        0.001 s           0.000 s

  Partial memory accounting:
  | Current value for overall tracked memory usage:
  |   Minimum:        0.351 MB (on task  7)
  |   Maximum:        0.368 MB (on task  0)
  |   Average:        0.354 MB
  | Peak value for overall tracked memory usage:
  |   Minimum:        2.236 MB (on task 19 after allocating gradient_basis_wave)
  |   Maximum:        2.297 MB (on task  1 after allocating gradient_basis_wave)
  |   Average:        2.269 MB
  | Largest tracked array allocation so far:
  |   Minimum:        0.730 MB (gradient_basis_wave on task 19)
  |   Maximum:        0.748 MB (gradient_basis_wave on task  1)
  |   Average:        0.743 MB
  Note:  These values currently only include a subset of arrays which are explicitly tracked.
  The "true" memory usage will be greater.
------------------------------------------------------------

------------------------------------------------------------
          Begin self-consistency iteration #    2

  Date     :  20240515, Time     :  102244.282
------------------------------------------------------------
  Pulay mixing of updated and previous charge densities.
  Renormalizing the density to the exact electron count on the 3D integration grid.
  | Formal number of electrons (from input files) :      24.0000000000
  | Integrated number of electrons on 3D grid     :      24.0000000000
  | Charge integration error                      :       0.0000000000
  | Normalization factor for density and gradient :       1.0000000000

  Evaluating partitioned Hartree potential by multipole expansion.
  | Original multipole sum: apparent total charge =  -0.252250E-13
  | Sum of charges compensated after spline to logarithmic grids =   0.303626E-06
  | Analytical far-field extrapolation by fixed multipoles:
  | Hartree multipole sum: apparent total charge =  -0.251635E-13
  Summing up the Hartree potential.
  Time summed over all CPUs for potential: real work        0.206 s, elapsed        0.239 s
  | RMS charge density error from multipole expansion :   0.726154E-03

  Integrating Hamiltonian matrix: batch-based integration.
  Time summed over all CPUs for integration: real work        0.385 s, elapsed        0.429 s

  Updating Kohn-Sham eigenvalues and eigenvectors using ELSI and the ELPA eigensolver.
  Starting ELPA eigensolver
  Finished transformation to standard eigenproblem
  | Time :     0.001 s
  Finished solving standard eigenproblem
  | Time :     0.010 s
  Finished back-transformation of eigenvectors
  | Time :     0.001 s

  Obtaining occupation numbers and electronic chemical potential using ELSI.
  | Note that, for insulating systems, the printed 'chemical potential' value is not uniquely defined.
  | It can be anywhere in the energy gap, as long as it correctly separates occupied and unoccupied states.
  | In systems with a gap, the physically relevant chemical potential is the VBM or HOMO.

  | Chemical potential (Fermi level):    -7.46806958 eV
  Highest occupied state (VBM) at     -8.28266924 eV
  | Occupation number:      2.00000000

  Lowest unoccupied state (CBM) at    -6.21573556 eV
  | Occupation number:      0.00000000

  Overall HOMO-LUMO gap:      2.06693368 eV.

  Checking to see if s.c.f. parameters should be adjusted.

  Total energy components:
  | Sum of eigenvalues            :        -124.68864048 Ha       -3392.95053875 eV
  | XC energy correction          :         -25.24248915 Ha        -686.88307794 eV
  | XC potential correction       :          32.45726031 Ha         883.20699017 eV
  | Free-atom electrostatic energy:        -107.77455399 Ha       -2932.69482788 eV
  | Hartree energy correction     :          -0.03638854 Ha          -0.99018267 eV
  | Entropy correction            :          -0.00000000 Ha          -0.00000000 eV
  | ---------------------------
  | Total energy                  :        -225.28481184 Ha       -6130.31163707 eV
  | Total energy, T -> 0          :        -225.28481184 Ha       -6130.31163707 eV  <-- do not rely on this value for anything but (periodic) metals
  | Electronic free energy        :        -225.28481184 Ha       -6130.31163707 eV

  Derived energy quantities:
  | Kinetic energy                :         224.73604047 Ha        6115.37880833 eV
  | Electrostatic energy          :        -424.77836317 Ha      -11558.80736746 eV
  | Energy correction for multipole
  | error in Hartree potential    :          -0.00057123 Ha          -0.01554388 eV
  | Sum of eigenvalues per atom                           :       -1130.98351292 eV
  | Total energy (T->0) per atom                          :       -2043.43721236 eV  <-- do not rely on this value for anything but (periodic) metals
  | Electronic free energy per atom                       :       -2043.43721236 eV
  Evaluating new KS density using the density matrix
  Evaluating density matrix
  Finished density matrix calculation
  | Time :     0.001 s
  Time summed over all CPUs for getting density from density matrix: real work        0.607 s, elapsed        0.683 s
  Integration grid: deviation in total charge (<rho> - N_e) =  -2.131628E-14

  Self-consistency convergence accuracy:
  | Change of charge density      :  0.2521E+00
  | Change of unmixed KS density  :  0.1979E+00
  | Change of sum of eigenvalues  :  0.2166E+01 eV
  | Change of total energy        :  0.2058E+00 eV


------------------------------------------------------------
  End self-consistency iteration #     2       :  max(cpu_time)    wall_clock(cpu1)
  | Time for this iteration                     :        0.071 s           0.067 s
  | Charge density update                       :        0.020 s           0.021 s
  | Density mixing                              :        0.014 s           0.009 s
  | Hartree multipole update                    :        0.002 s           0.003 s
  | Hartree multipole summation                 :        0.009 s           0.009 s
  | Integration                                 :        0.012 s           0.012 s
  | Solution of K.-S. eqns.                     :        0.013 s           0.013 s
  | Total energy evaluation                     :        0.000 s           0.000 s

  Partial memory accounting:
  | Current value for overall tracked memory usage:
  |   Minimum:        0.353 MB (on task  7)
  |   Maximum:        0.370 MB (on task  0)
  |   Average:        0.355 MB
  | Peak value for overall tracked memory usage:
  |   Minimum:        2.237 MB (on task 19 after allocating gradient_basis_wave)
  |   Maximum:        2.298 MB (on task  1 after allocating gradient_basis_wave)
  |   Average:        2.271 MB
  | Largest tracked array allocation so far:
  |   Minimum:        0.730 MB (gradient_basis_wave on task 19)
  |   Maximum:        0.748 MB (gradient_basis_wave on task  1)
  |   Average:        0.743 MB
  Note:  These values currently only include a subset of arrays which are explicitly tracked.
  The "true" memory usage will be greater.
[...]
      68    0.0000       95.9103       -5.2966      -18.3389       -5.2889      103.6636
      69    0.0000       97.0936       -4.8537      -17.2279       -3.3938      106.0740
      70    0.0000       97.5546       -4.9677      -17.8590       -4.4728      105.9732
      71    0.0000       99.9100       -4.5932      -17.4698       -4.7866      108.0000
      72    0.0000       99.9463       -4.5499      -17.1904       -3.9568      108.6299
      73    0.0000      100.9890       -4.6667      -18.0089       -5.3339      108.9973
      74    0.0000      102.9683       -4.4304      -17.4151       -5.2428      110.7102
      75    0.0000      103.6448       -3.6345      -16.3296       -4.2375      112.1025
      76    0.0000      103.8772       -5.3760      -19.1541       -5.4354      112.2199
      77    0.0000      106.0831       -4.7085      -17.8802       -3.8650      115.3898
      78    0.0000      107.7210       -4.3323      -17.1239       -4.4431      116.0695
      79    0.0000      108.1665       -3.5313      -16.6175       -4.4144      116.8382
      80    0.0000      109.3825       -3.6332      -16.2216       -1.8432      120.1277
      81    0.0000      111.3519       -2.5724      -14.6113       -0.5252      122.8656
      82    0.0000      112.0670       -3.5016      -16.0670       -3.3673      121.2651
      83    0.0000      113.4740       -5.0814      -18.3375       -4.2582      122.4719
      84    0.0000      118.0554       -4.5111      -18.2579       -4.5122      127.2901
      85    0.0000      118.3821       -4.0460      -17.4677       -5.0220      126.7818
      86    0.0000      120.9718       -5.2222      -19.7397       -6.0873      129.4021
      87    0.0000      122.4410       -5.7048      -21.3342       -5.4308      132.6396
      88    0.0000      122.6170       -4.5527      -18.7579       -4.7809      132.0413
      89    0.0000      126.8932       -7.2248      -24.1049       -9.2359      134.5374
      90    0.0000      127.2381       -6.7030      -22.5018       -7.1199      135.9171
      91    0.0000      127.9973       -7.3781      -24.4924       -8.1754      136.9362
      92    0.0000      130.5568       -3.8458      -17.4617       -4.3270      139.8458
      93    0.0000      135.7982       -3.4870      -16.9565       -3.6098      145.6580
      94    0.0000      137.4295       -6.3212      -22.5095       -6.3970      147.2209
      95    0.0000      137.5899       -5.4785      -21.5240       -6.4685      147.1669
      96    0.0000      140.6657       -5.7932      -22.3331       -5.6949      151.5107
      97    0.0000      152.7740       -4.8460      -20.5675       -2.9323      165.5631
      98    0.0000      192.6024       -5.9811      -24.5279       -1.5405      209.6087
      99    0.0000      195.5828       -6.3758      -25.6310       -1.6510      213.1869
     100    0.0000      212.6252       -2.5708      -18.8622       -1.9147      227.0020
     101    0.0000      216.0664       -2.7170      -19.2290       -2.0194      230.5589
     102    0.0000      221.4675       -2.7142      -19.3622       -2.3208      235.7947
     103    0.0000      221.6760       -2.5199      -18.9040       -2.5643      235.4958
     104    0.0000      223.1260       -2.6918      -19.3910       -2.1840      237.6412
     105    0.0000      224.1257       -2.5021      -18.9873       -1.9131      238.6978
     106    0.0000      224.3541       -3.0990      -19.9653       -2.2508      238.9696
     107    0.0000      228.4217       -2.8000      -19.7117       -2.2021      243.1313
     108    0.0000      231.0849       -2.9501      -19.9242       -6.2945      241.7645
     109    0.0000      235.6849       -2.3622      -18.8973       -2.3358      249.8841
     110    0.0000      235.7021       -2.3638      -18.9007       -2.2349      250.0041
     111    0.0000      235.7792       -2.3771      -18.9314       -2.3106      250.0228
     112    0.0000      235.7855       -2.3748      -18.9276       -2.3336      250.0047
     113    0.0000      237.4879       -2.4018      -19.0715       -1.9692      252.1883
     114    0.0000      237.9510       -2.4692      -19.1513       -2.5011      252.1320
     115    0.0000      240.1564       -2.3200      -18.9398       -2.0199      254.7563
     116    0.0000      243.1943       -2.4964      -19.3817       -1.8224      258.2571
     117    0.0000      251.3323       -2.7089      -20.0591       -2.1458      266.5367
     118    0.0000      254.6800       -2.3719      -19.4863       -1.8504      269.9441
     119    0.0000      257.1284       -2.6844      -20.1678       -2.2728      272.3390
     120    0.0000      270.9451       -2.5277      -20.0341       -2.3845      286.0670
     121    0.0000      276.6067       -2.7408      -20.7347       -2.2207      292.3799
     122    0.0000      276.6297       -2.7553      -20.7905       -3.1728      291.4921
     123    0.0000      277.7044       -2.5373      -20.4880       -1.7704      293.8847
     124    0.0000      286.8131       -3.2411      -22.2674       -4.0080      301.8313
     125    0.0000      288.7582       -3.3619      -22.7135       -4.2745      303.8353
     126    0.0000      288.7586       -3.5138      -23.0857       -4.4414      303.8891
     127    0.0000      290.3849       -3.2283      -22.1609       -1.9747      307.3429
     128    0.0000      291.4012       -3.6054      -23.3088       -5.7213      305.3833
     129    0.0000      291.5817       -3.5396      -23.1183       -8.0646      303.0958
     130    0.0000      291.6351       -3.2168      -22.2098       -3.4893      307.1388
     131    0.0000      292.2361       -3.5171      -23.1272       -4.8283      307.0179
     132    0.0000      292.5725       -3.5006      -23.0832       -5.7139      306.4412
     133    0.0000      296.5720       -3.5782      -23.3137       -5.2652      311.0423
     134    0.0000      296.7494       -3.1849      -22.4538       -4.5739      311.4444
     135    0.0000      300.8886       -3.5844      -23.2863       -2.9779      317.6125
     136    0.0000      302.4775       -3.2067      -22.6447       -4.6802      317.2352
     137    0.0000      304.3757       -3.2621      -22.8259       -4.6698      319.2696
     138    0.0000      304.7311       -3.1034      -22.4420       -4.8206      319.2491
     139    0.0000      304.8760       -3.4128      -23.0142       -4.1885      320.2889
     140    0.0000      305.7697       -3.2543      -22.8339       -4.9125      320.4369
     141    0.0000      306.4880       -3.3754      -23.2424       -5.1483      321.2066
     142    0.0000      306.7933       -3.4328      -23.1003       -4.3911      322.0697
     143    0.0000      307.8479       -5.9795      -26.2298       -4.0187      324.0796
     144    0.0000      310.2393       -3.5130      -23.5206       -4.5521      325.6948
     145    0.0000      312.1889       -3.8112      -24.0309       -5.5073      326.9013
     146    0.0000      313.1147       -3.7308      -24.0321       -4.6533      328.7626
     147    0.0000      315.1762       -4.0876      -24.7890       -5.0170      330.8606
     148    0.0000      317.1259       -4.6837      -25.6127       -5.7605      332.2945
     149    0.0000      317.3569       -4.0286      -24.7347       -6.3097      331.7534
     150    0.0000      317.9429       -4.1466      -24.8980       -8.8922      329.8021
     151    0.0000      318.2231       -4.2995      -25.2590       -5.9852      333.1974
     152    0.0000      319.8290       -4.1572      -25.0376       -1.3537      339.3556
     153    0.0000      322.1352       -4.0746      -24.9232       -6.7007      336.2830
     154    0.0000      322.3532       -4.2250      -25.0988       -4.7726      338.4544
     155    0.0000      327.4521       -3.5494      -23.7627       -4.6091      343.0562
     156    0.0000      329.1227       -4.7613      -25.1350       -4.9027      344.5937
     157    0.0000      354.1702       -3.2761      -23.6663       -3.3367      371.2237
     158    0.0000      357.5373       -4.9788      -26.0088       -3.7545      374.8129
     159    0.0000      358.8533       -3.6343      -24.2069       -2.0630      377.3630
     160    0.0000      361.6854       -3.1963      -23.7304       -3.3633      378.8562
     161    0.0000      364.3356       -8.9383      -30.8684       -4.5616      381.7041
     162    0.0000      368.4392       -9.0112      -30.9187       -5.3768      384.9699
     163    0.0000      383.5160       -7.3092      -29.0201       -3.6790      401.5480
     164    0.0000      402.8034       -4.0132      -25.9508       -2.4182      422.3228
     165    0.0000      404.6402       -4.2201      -26.5086       -2.0885      424.8402
     166    0.0000     1274.3841      -18.2682      -62.3122       -2.3297     1316.0983
     167    0.0000     1287.6599      -18.1569      -62.2516       -2.3002     1329.4544
     168    0.0000     1293.4432      -18.0529      -62.1668       -2.4846     1335.0724
     169    0.0000     6854.4496      -20.8167     -126.4172       -0.5264     6959.5237
     170    0.0000     6869.6822      -20.7733     -126.3834       -1.5169     6973.7754
     171    0.0000     6876.6822      -20.7388     -126.3489        0.4166     6982.7088
----------------------------------------------------------------------------------------

   DFT/Hartree-Fock HOMO level (eV):    -7.8900   -7.8900

   Quasiparticle HOMO level (eV):      -11.9280  -11.9280
----------------------------------------------------------------------------------------

  Printing out the self-energy matrix element: 12 for spin  1

------------------------------------------------------------------------------------------------------

  Start calculating the spectral function for state: 12

------------------------------------------------------------------------------------------------------

          | Total time for transforming the 3-center integrals :        0.191 s
          | Total time for calculating the exchange-correlation
                                  energy matrix elements   :        0.014 s
          | Total time for calculating polarisability     
                        for imaginary frequencies          :        7.224 s
          | Total time for calculating self energy 
                        on imaginary frequency axis        :      101.068 s
          | Total time for calculating the quasiparticle 
                  energies with analytic continuation      :        0.027 s
          | Total time for calculating the quasiparticle 
                  energies with contour deformation        :      459.553 s

------------------------------------------------------------------------------
  Final output of selected total energy values:

  The following output summarizes some interesting total energy values
  at the end of a run (AFTER all relaxation, molecular dynamics, etc.).

  | Total energy of the DFT / Hartree-Fock s.c.f. calculation      :          -6130.156047873 eV
  | Final zero-broadening corrected energy (caution - metals only) :          -6130.156047873 eV
  | For reference only, the value of 1 Hartree used in FHI-aims is :             27.211384500 eV

  Before relying on these values, please be sure to understand exactly which
  total energy value is referred to by a given number. Different objects may
  all carry the same name 'total energy'. Definitions:

  Total energy of the DFT / Hartree-Fock s.c.f. calculation:
  | Note that this energy does not include ANY quantities calculated after the
  | s.c.f. cycle, in particular not ANY RPA, MP2, etc. many-body perturbation terms.

  Final zero-broadening corrected energy:
  | For metallic systems only, a broadening of the occupation numbers at the Fermi
  | level can be extrapolated back to zero broadening by an electron-gas inspired
  | formula. For all systems that are not real metals, this value can be
  | meaningless and should be avoided.

------------------------------------------------------------------------------
  Methods described in the following list of references were used in this FHI-aims run.
  If you publish the results, please make sure to cite these reference if they apply.
  FHI-aims is an academic code, and for our developers (often, Ph.D. students
  and postdocs), scientific credit in the community is essential.
  Thank you for helping us!

  For any use of FHI-aims, please cite:

    Volker Blum, Ralf Gehrke, Felix Hanke, Paula Havu, Ville Havu,
    Xinguo Ren, Karsten Reuter, and Matthias Scheffler
    'Ab initio molecular simulations with numeric atom-centered orbitals'
    Computer Physics Communications 180, 2175-2196 (2009)
    http://doi.org/10.1016/j.cpc.2009.06.022


  For Hartree-Fock, hybrid functionals, or many-body perturbation theory used in your run, please cite:

    Xinguo Ren, Patrick Rinke, Volker Blum, Juergen Wieferink, Alex Tkatchenko,
    Andrea Sanfilippo, Karsten Reuter, and Matthias Scheffler,
    'Resolution-of-identity approach to Hartree-Fock, hybrid density functionals,
    RPA, MP2, and GW with numeric atom-centered orbital basis functions'
    New Journal of Physics 14, 053020 (2012).
    http://doi.org/10.1088/1367-2630/14/5/053020


  The ELSI infrastructure was used in your run to solve the Kohn-Sham electronic structure.
  Please check out http://elsi-interchange.org to learn more.
  If scalability is important for your project, please acknowledge ELSI by citing:

    V. W-z. Yu, F. Corsetti, A. Garcia, W. P. Huhn, M. Jacquelin, W. Jia,
    B. Lange, L. Lin, J. Lu, W. Mi, A. Seifitokaldani, A. Vazquez-Mayagoitia,
    C. Yang, H. Yang, and V. Blum
    'ELSI: A unified software interface for Kohn-Sham electronic structure solvers'
    Computer Physics Communications 222, 267-285 (2018).
    http://doi.org/10.1016/j.cpc.2017.09.007


  For the real-space grid partitioning and parallelization used in this calculation, please cite:

    Ville Havu, Volker Blum, Paula Havu, and Matthias Scheffler,
    'Efficient O(N) integration for all-electron electronic structure calculation'
    'using numerically tabulated basis functions'
    Journal of Computational Physics 228, 8367-8379 (2009).
    http://doi.org/10.1016/j.jcp.2009.08.008

  Of course, there are many other important community references, e.g., those cited in the
  above references. Our list is limited to references that describe implementations in the
  FHI-aims code. The reason is purely practical (length of this list) - please credit others as well.

 * A warning was issued further up regarding the accuracy of onsite integrals.
   An integral with a negative eigenvalue was among the flagged integrals.
   In most standard situations, this warning is probably harmless.
   If needed, this can be verified by adjusting the radial_multiplier flag.

 * Warning - angular integration grids had to be adjusted for use with RI_method 'V'.
 * Background: You are using an electronic structure method that requires RI_method 'V'
 * for the resolution of identity of the Coulomb operator. (See Ren et al.,
 * New J. Phys 2012 for details.) This method requires three-center integrations
 * to be carried out on FHI-aims' normal angular and radial integration grids.
 * (See FHI-aims CPC Blum et al. 2009, p. 2183 for grid details and references.)
 * One of the angular grids specified in your control.in file was not large
 * enough for the maximal angular momenta of orbital and product basis functions
 * for its species.
 * This can lead to atomic total energy errors which cancel in energy differences.
 * Effective Sep 22, 2014, we have changed the default behavior of the code to
 * simply 'upgrade' the angular grids internally to a safe setting in this case.
 * Please be sure to NOT mix total energies from before and after the change.

------------------------------------------------------------
          Leaving FHI-aims.
          Date     :  20240515, Time     :  104115.874

          Computational steps:
          | Number of self-consistency cycles          :           13
          | Number of SCF (re)initializations          :            1

          Detailed time accounting                     :  max(cpu_time)    wall_clock(cpu1)
          | Total time                                  :     1106.850 s        1112.092 s
          | Preparation time                            :        0.112 s           0.114 s
          | Boundary condition initalization            :        0.000 s           0.000 s
          | Grid partitioning                           :        0.027 s           0.027 s
          | Preloading free-atom quantities on grid     :        0.007 s           0.008 s
          | Free-atom superposition energy              :        0.002 s           0.002 s
          | Total time for integrations                 :        0.189 s           0.195 s
          | Product basis setup: Total time             :        0.000 s           0.000 s
          | Product basis: | 3-center integrations     :(       3.487 s)  (       3.516 s)
          | Product basis: | 2-center integrations     :(       0.078 s)  (       0.078 s)
          | Product basis: | 2-center linear algebra   :(       0.166 s)  (       0.173 s)
          | Product basis: | 3-center x 2-center       :(       0.140 s)  (       0.142 s)
          | Transforming ovlp_3fn to ovlp_3KS           :        0.191 s           0.192 s
          | Screened Coulomb matrix W_mn(iw)            :      106.374 s         106.884 s
          | Polarisability matrix Pi_PQ(iw)             :        7.224 s           7.224 s
          | Total time for GW calculation               :     1101.642 s        1106.684 s
          | GW self-energy (analytic cont.)             :      108.797 s         109.314 s
          | Contour def: | Solving qp equations         :      459.553 s         461.589 s
          | Contour def: | GW self-energy               :      989.809 s         967.386 s
          | Contour def: | Scr Coulomb matrix W_mn(w)   :      986.598 s         964.261 s
          | Contour def: | CD-WAC W_mn(w) and Pade      :        0.000 s           0.000 s
          | Contour def: | Scr aux Coulomb mat W_PQ(w)  :      702.225 s         677.656 s
          | Contour def: | Polarisability Pi_PQ(w)      :      279.978 s         267.703 s
          | Contour def: | Printing self-energy CD      :      455.424 s         457.160 s
          | Contour def: | Spectral function CD         :       77.882 s          78.294 s
          | Total time for solution of K.-S. equations  :        0.163 s           0.165 s
          | Total time for density update               :        0.271 s           0.275 s
          | Total time for mixing                       :        0.202 s           0.086 s
          | Total time for Hartree multipole update     :        0.035 s           0.036 s
          | Total time for Hartree multipole sum        :        0.117 s           0.116 s
          | Total time for total energy evaluation      :        0.003 s           0.002 s

          Partial memory accounting:
          | Residual value for overall tracked memory usage across tasks:     0.000000 MB (should be 0.000000 MB)
          | Peak values for overall tracked memory usage:
          |   Minimum:        2.239 MB (on task 19 after allocating gradient_basis_wave)
          |   Maximum:        2.301 MB (on task  1 after allocating gradient_basis_wave)
          |   Average:        2.273 MB
          | Largest tracked array allocation:
          |   Minimum:        0.730 MB (gradient_basis_wave on task 19)
          |   Maximum:        0.748 MB (gradient_basis_wave on task  1)
          |   Average:        0.743 MB
          Note:  These values currently only include a subset of arrays which are explicitly tracked.
          The "true" memory usage will be greater.

          Have a nice day.
------------------------------------------------------------
