------------------------------------------------------------
          Invoking FHI-aims ...

          When using FHI-aims, please cite the following reference:

            Volker Blum, Ralf Gehrke, Felix Hanke, Paula Havu,
            Ville Havu, Xinguo Ren, Karsten Reuter, and Matthias Scheffler,
            'Ab Initio Molecular Simulations with Numeric Atom-Centered Orbitals',
            Computer Physics Communications 180, 2175-2196 (2009)

          In addition, many other developments in FHI-aims are likely important for
          your particular application. A partial list of references is given at the end of
          this file. Thank you for giving credit to the authors of these developments.

          For any questions about FHI-aims, please visit our slack channel at

            https://fhi-aims.slack.com

          and our main development and support site at

            https://aims-git.rz-berlin.mpg.de .

          The latter site, in particular, has a wiki to collect information, as well
          as an issue tracker to log discussions, suggest improvements, and report issues
          or bugs. https://aims-git.rz-berlin.mpg.de is also the main development site
          of the project and all new and updated code versions can be obtained there.
          Please send an email to aims-coordinators@fhi-berlin.mpg.de and we will add
          you to these sites. They are for you and everyone is welcome there.

------------------------------------------------------------



  Date     :  20240515, Time     :  123125.669
  Time zero on CPU 1             :   0.285902900000000E+01  s.
  Internal wall clock time zero  :           485008285.669  s.

  FHI-aims created a unique identifier for this run for later identification
  aims_uuid : 3536D146-400E-4F5A-A7FC-CFF41212FDAA

  Build configuration of the current instance of FHI-aims
  -------------------------------------------------------
  FHI-aims version      : 221103.1
  Commit number         : GITDIR-NOTFOUND
  CMake host system     : Linux-4.18.0-372.32.1.el8_6.x86_64
  CMake version         : 3.24.3
  Fortran compiler      : /opt/software/pc2/EB-SW/software/OpenMPI/4.1.4-GCC-12.2.0/bin/mpifort (GNU) version 12.2.0
  Fortran compiler flags: -O3 -ffree-line-length-none -fallow-argument-mismatch -march=znver3 -mprefer-vector-width=256
  C compiler            : /opt/software/pc2/EB-SW/software/GCCcore/12.2.0/bin/gcc (GNU) version 12.2.0
  C compiler flags      : -O3 -DNDEBUG -funroll-loops -march=znver3 -mprefer-vector-width=256
  HIP compiler          :
  HIP compiler flags    :
  HIP GPU arch          :
  Using MPI
  Using ScaLAPACK
  Using LibXC
  Using i-PI
  Using RLSY
  Linking against: /opt/software/pc2/EB-SW/software/ScaLAPACK/2.2.0-gompi-2022b-fb/lib/libscalapack.so
                   /opt/software/pc2/EB-SW/software/OpenBLAS/0.3.21-GCC-12.2.0/lib/libopenblas.so

  Using      128 parallel tasks.
  Task        0 on host n2cn0173 reporting.
  Task        1 on host n2cn0173 reporting.
  Task        2 on host n2cn0173 reporting.
  Task        3 on host n2cn0173 reporting.
  Task        4 on host n2cn0173 reporting.
  Task        5 on host n2cn0173 reporting.
  Task        6 on host n2cn0173 reporting.
  Task        7 on host n2cn0173 reporting.
  Task        8 on host n2cn0173 reporting.
  Task        9 on host n2cn0173 reporting.
  Task       10 on host n2cn0173 reporting.
  Task       11 on host n2cn0173 reporting.
  Task       12 on host n2cn0173 reporting.
  Task       13 on host n2cn0173 reporting.
  Task       14 on host n2cn0173 reporting.
  Task       15 on host n2cn0173 reporting.
  Task       16 on host n2cn0173 reporting.
  Task       17 on host n2cn0173 reporting.
  Task       18 on host n2cn0173 reporting.
  Task       19 on host n2cn0173 reporting.
  Task       20 on host n2cn0173 reporting.
  Task       21 on host n2cn0173 reporting.
  Task       22 on host n2cn0173 reporting.
  Task       23 on host n2cn0173 reporting.
  Task       24 on host n2cn0173 reporting.
  Task       25 on host n2cn0173 reporting.
  Task       26 on host n2cn0173 reporting.
  Task       27 on host n2cn0173 reporting.
  Task       28 on host n2cn0173 reporting.
  Task       29 on host n2cn0173 reporting.
  Task       30 on host n2cn0173 reporting.
  Task       31 on host n2cn0173 reporting.
  Task       32 on host n2cn0173 reporting.
  Task       33 on host n2cn0173 reporting.
  Task       34 on host n2cn0173 reporting.
  Task       35 on host n2cn0173 reporting.
  Task       36 on host n2cn0173 reporting.
  Task       37 on host n2cn0173 reporting.
  Task       38 on host n2cn0173 reporting.
  Task       39 on host n2cn0173 reporting.
  Task       40 on host n2cn0173 reporting.
  Task       41 on host n2cn0173 reporting.
  Task       42 on host n2cn0173 reporting.
  Task       43 on host n2cn0173 reporting.
  Task       44 on host n2cn0173 reporting.
  Task       45 on host n2cn0173 reporting.
  Task       46 on host n2cn0173 reporting.
  Task       47 on host n2cn0173 reporting.
  Task       48 on host n2cn0173 reporting.
  Task       49 on host n2cn0173 reporting.
  Task       50 on host n2cn0173 reporting.
  Task       51 on host n2cn0173 reporting.
  Task       52 on host n2cn0173 reporting.
  Task       53 on host n2cn0173 reporting.
  Task       54 on host n2cn0173 reporting.
  Task       55 on host n2cn0173 reporting.
  Task       56 on host n2cn0173 reporting.
  Task       57 on host n2cn0173 reporting.
  Task       58 on host n2cn0173 reporting.
  Task       59 on host n2cn0173 reporting.
  Task       60 on host n2cn0173 reporting.
  Task       61 on host n2cn0173 reporting.
  Task       62 on host n2cn0173 reporting.
  Task       63 on host n2cn0173 reporting.
  Task       64 on host n2cn0173 reporting.
  Task       65 on host n2cn0173 reporting.
  Task       66 on host n2cn0173 reporting.
  Task       67 on host n2cn0173 reporting.
  Task       68 on host n2cn0173 reporting.
  Task       69 on host n2cn0173 reporting.
  Task       70 on host n2cn0173 reporting.
  Task       71 on host n2cn0173 reporting.
  Task       72 on host n2cn0173 reporting.
  Task       73 on host n2cn0173 reporting.
  Task       74 on host n2cn0173 reporting.
  Task       75 on host n2cn0173 reporting.
  Task       76 on host n2cn0173 reporting.
  Task       77 on host n2cn0173 reporting.
  Task       78 on host n2cn0173 reporting.
  Task       79 on host n2cn0173 reporting.
  Task       80 on host n2cn0173 reporting.
  Task       81 on host n2cn0173 reporting.
  Task       82 on host n2cn0173 reporting.
  Task       83 on host n2cn0173 reporting.
  Task       84 on host n2cn0173 reporting.
  Task       85 on host n2cn0173 reporting.
  Task       86 on host n2cn0173 reporting.
  Task       87 on host n2cn0173 reporting.
  Task       88 on host n2cn0173 reporting.
  Task       89 on host n2cn0173 reporting.
  Task       90 on host n2cn0173 reporting.
  Task       91 on host n2cn0173 reporting.
  Task       92 on host n2cn0173 reporting.
  Task       93 on host n2cn0173 reporting.
  Task       94 on host n2cn0173 reporting.
  Task       95 on host n2cn0173 reporting.
  Task       96 on host n2cn0173 reporting.
  Task       97 on host n2cn0173 reporting.
  Task       98 on host n2cn0173 reporting.
  Task       99 on host n2cn0173 reporting.
  Task      100 on host n2cn0173 reporting.
  Task      101 on host n2cn0173 reporting.
  Task      102 on host n2cn0173 reporting.
  Task      103 on host n2cn0173 reporting.
  Task      104 on host n2cn0173 reporting.
  Task      105 on host n2cn0173 reporting.
  Task      106 on host n2cn0173 reporting.
  Task      107 on host n2cn0173 reporting.
  Task      108 on host n2cn0173 reporting.
  Task      109 on host n2cn0173 reporting.
  Task      110 on host n2cn0173 reporting.
  Task      111 on host n2cn0173 reporting.
  Task      112 on host n2cn0173 reporting.
  Task      113 on host n2cn0173 reporting.
  Task      114 on host n2cn0173 reporting.
  Task      115 on host n2cn0173 reporting.
  Task      116 on host n2cn0173 reporting.
  Task      117 on host n2cn0173 reporting.
  Task      118 on host n2cn0173 reporting.
  Task      119 on host n2cn0173 reporting.
  Task      120 on host n2cn0173 reporting.
  Task      121 on host n2cn0173 reporting.
  Task      122 on host n2cn0173 reporting.
  Task      123 on host n2cn0173 reporting.
  Task      124 on host n2cn0173 reporting.
  Task      125 on host n2cn0173 reporting.
  Task      126 on host n2cn0173 reporting.
  Task      127 on host n2cn0173 reporting.

  Performing system and environment tests:
  | Environment variable OMP_NUM_THREADS correctly set to 1.
  | Checking for ScaLAPACK...
  | Testing pdtran()...
  | All pdtran() tests passed.

  Obtaining array dimensions for all initial allocations:
  
  -----------------------------------------------------------------------
  Parsing control.in (first pass over file, find array dimensions only).
  The contents of control.in will be repeated verbatim below
  unless switched off by setting 'verbatim_writeout .false.' .
  in the first line of control.in .
  -----------------------------------------------------------------------
  
  #control.in header for database project
  #using def2-QVPZ basis for light and heavy elements
  
  #########################################
    xc                 pbe0
    qpe_calc           gw
    hybrid_xc_coeff 0.25
    #RI_method v
    #spin               collinear
    #default_initial_moment 0.01
    spin none
  
    anacon_type  1
    n_anacon_par 128
    frequency_points 600
    contour_def_gw   1 17
    contour_eta 0.004
    state_lower_limit 1
    state_upper_limit 500
    print_self_energy 6 -20.0 0.0
  
    relativistic none
    override_relativity .true.
    partition_type rho_r2
    density_update_method density_matrix
  
    calc_spectral_func -20.0 0.0 0.01
    spectral_func_state 6
  
  #########################################
    occupation_type    gaussian 0.000001
    mixer              pulay
      n_max_pulay        10
      charge_mix_param   0.1
    sc_accuracy_rho    1E-7
    sc_accuracy_eev    1E-7
    sc_accuracy_etot   1E-7
    sc_iter_limit      800
  #########################################
    prodbas_threshold  1.e-7
    KS_method          serial
    empty_states       25000
    # Do not check for overlapping xxx matrix
    # Not recommended
    # Necessary for large basis sets
    override_illconditioning .true.
    basis_threshold 1.e-5
  #########################################
  ################################################################################
  #
  #  FHI-aims code project
  # Volker Blum, Fritz Haber Institute Berlin, 2009
  #
  #  Suggested "tight" defaults for Be atom (to be pasted into control.in file)
  #
  ################################################################################
    species        Be
  #     global species definitions
      nucleus             4
      mass                9.012182
  #
      l_hartree           8
  #
      cut_pot             4.0  2.0  1.0
      basis_dep_cutoff    0.d0
  #
      radial_base         31 7.0
      radial_multiplier   4
      angular_grids       specified
        division   0.4283  110
        division   0.4792  194
        division   0.5061  302
        division   0.7227  434
        division   0.8724  590
        #division   0.9555  770
        #division   2.9770  974
        #outer_grid   974
        outer_grid 590
  
  ################################################################################
  #
  #  Definition of "minimal" basis
  #
  ################################################################################
  #     valence basis states
      valence      2  s   2.
  #     ion occupancy
      ion_occ      2  s   1.
  ################################################################################
              # The default minimal basis should not be included
              include_min_basis .false.
              # Use spherical functions?
              pure_gauss .true.
              # Be def2-QZVP
  gaussian 0 8
  29646.7044070              0.37943320869E-04
   4428.7614354              0.29605352634E-03
   1005.4701332              0.15572477356E-02
    284.15339578             0.65323195769E-02
     92.504356461            0.23116861005E-01
     33.311016058            0.69458515249E-01
     12.911553314            0.17014371331
      5.2665497361           0.31682711374
  gaussian 0 2
     22.995386380            0.81791122747E-01
      6.6236354176           0.80000038023
  gaussian 0 1 2.2289595003
  gaussian 0 1 0.95302433451
  gaussian 0 1 0.24651602436
  gaussian 0 1 0.10153895315
  gaussian 0 1 0.41551374604E-01
  gaussian 1 1 6.4000000
  gaussian 1 4
     14.099789445            0.38508871145E-02
      3.1803188482           0.24152380771E-01
      0.90489220496          0.97926925156E-01
      0.30411585508          0.29470380030
  gaussian 1 1 0.11302606657
  gaussian 1 1 0.42831733691E-01
  gaussian 2 1 0.3600000
  gaussian 2 1 0.0900000
  gaussian 3 1 0.2900000
  
  
  
  ################################################################################
  #
  #  FHI-aims code project
  # Volker Blum, Fritz Haber Institute Berlin, 2009
  #
  #  Suggested "tight" defaults for O atom (to be pasted into control.in file)
  #
  ################################################################################
    species        O
  #     global species definitions
      nucleus             8
      mass                15.9994
  #
      l_hartree           8
  #
      cut_pot             4.0  2.0  1.0
      basis_dep_cutoff    0.d0
  #
      radial_base         36 7.0
      radial_multiplier   4
       angular_grids specified
        division   0.4087  110
        division   0.5181  194
        division   0.6184  302
        division   0.7315  434
        division   0.7934  590
        #division   0.9656  770
        #division   1.4041  974
        #outer_grid 974
        outer_grid 590
  
  ################################################################################
  #
  #  Definition of "minimal" basis
  #
  ################################################################################
  #     valence basis states
      valence      2  s   2.
      valence      2  p   4.
  #     ion occupancy
      ion_occ      2  s   1.
      ion_occ      2  p   3.
  
  ################################################################################
  #
  #  Suggested additional basis functions. For production calculations,
  #  uncomment them one after another (the most important basis functions are
  #  listed first).
  #
  #  Basis constructed for dimers: 0.5 A, 0.7 A, 1.0 A, 1.5 A, 2.5 A
  #
  ################################################################################
  # The default minimal basis should not be included
  include_min_basis .false.
  # Use spherical functions?
  pure_gauss .true.
  # O def2-QZVP
  gaussian 0 8
 116506.4690800              0.40383857939E-04
  17504.3497240              0.31255139004E-03
   3993.4513230              0.16341473495E-02
   1133.0063186              0.68283224757E-02
    369.99569594             0.24124410221E-01
    133.62074349             0.72730206154E-01
     52.035643649            0.17934429892
     21.461939313            0.33059588895
  gaussian 0 2
     89.835051252            0.96468652996E-01
     26.428010844            0.94117481120
  gaussian 0 1 9.2822824649
  gaussian 0 1 4.0947728533
  gaussian 0 1 1.3255349078
  gaussian 0 1 0.51877230787
  gaussian 0 1 0.19772676454
  gaussian 1 5
    191.15255810             0.25115697705E-02
     45.233356739            0.20039240864E-01
     14.353465922            0.93609064762E-01
      5.2422371832           0.30618127124
      2.0792418599           0.67810501439
  gaussian 1 1 0.84282371424
  gaussian 1 1 0.33617694891
  gaussian 1 1 0.12863997974
  gaussian 2 1 3.77500000
  gaussian 2 1 1.30000000
  gaussian 2 1 0.44400000
  gaussian 3 1 2.66600000
  gaussian 3 1 0.85900000
  gaussian 4 1 1.84600000
  
  
  -----------------------------------------------------------------------
  Completed first pass over input file control.in .
  -----------------------------------------------------------------------
  
  
  -----------------------------------------------------------------------
  Parsing geometry.in (first pass over file, find array dimensions only).
  The contents of geometry.in will be repeated verbatim below
  unless switched off by setting 'verbatim_writeout .false.' .
  in the first line of geometry.in .
  -----------------------------------------------------------------------
  
  atom 0.0000 0.0000 0.0000 Be
  atom 0.0000 0.0000 1.3308 O
  
  
  -----------------------------------------------------------------------
  Completed first pass over input file geometry.in .
  -----------------------------------------------------------------------
  

  Basic array size parameters:
  | Number of species                 :        2
  | Number of atoms                   :        2
  | Max. basis fn. angular momentum   :        4
  | Max. atomic/ionic basis occupied n:        2
  | Max. number of basis fn. types    :        1
  | Max. radial fns per species/type  :       24
  | Max. logarithmic grid size        :     1301
  | Max. radial integration grid size :      147
  | Max. angular integration grid size:      590
  | Max. angular grid division number :        8
  | Radial grid for Hartree potential :     1301
  | Number of spin channels           :        1

------------------------------------------------------------
          Reading file control.in.
------------------------------------------------------------
  XC: Using hybrid-PBE0 functionals.
  GW quasiparticle calculation of excited states will be started after the DFT/HF calculation.
  hybrid_xc_coeff: Mixing coefficient for hybrid-functional exact exchange modified to         0.25000000 .
  * WARNING: This change modifies the chosen exchange-correlation functional (keyword 'xc')
  * from its literature definition. Be sure to NEVER include such a line in any default control.in files!
  Spin treatment: No spin polarisation.
  Using Pade approximation for analytical continuation.
  Number of fitting parameters for analytical continuation :    128
  Number of frequency points used for the self-energy calculation:    600
  Contour deformation in GW for the levels:      1     to      17
  Broadening parameter eta:       0.004000
  Lower limit of the eigenstates for the self-energy correction :      1
  Upper limit of the eigenstates for the self-energy correction :    500
  Non-relativistic treatment of kinetic energy.
  override_relativity: Explicitly overriding any built-in relativity checks.
  If you use this flag, you should really know what you are doing.
  Partition function in integrals calculations: rho / r^2
  Spectral function will be calculated from:   -20.000   to        0.000  eV
  Occupation type: Gaussian broadening, width =   0.100000E-05 eV.
  Using pulay charge density mixing.
  Pulay mixing - number of memorized iterations:   10
  Charge density mixing - mixing parameter:     0.1000
  Convergence accuracy of self-consistent charge density:  0.1000E-06
  Convergence accuracy of sum of eigenvalues:  0.1000E-06
  Convergence accuracy of total energy:  0.1000E-06
  Maximum number of s.-c. iterations  :   800
  Threshold for auxiliary basis singularities:  0.1000E-06
  Kohn-Sham eigenvalues and eigenfunctions calculated by LAPACK via ELSI.
  Number of empty states per atom:    25000
  override_illconditioning: Explicitly overriding any built-in checks for an ill-conditioned overlap matrix.
  *** WARNING: If you use this flag, you should really know what you are doing.
  *** DO NOT keep this flag set by default in all your control.in files.
  Threshold for basis singularities:  0.1000E-04

  Reading configuration options for species Be                  .
  | Found nuclear charge :   4.0000
  | Found atomic mass :    9.0121819999999992      amu
  | Found l_max for Hartree potential  :   8
  | Found cutoff potl. onset [A], width [A], scale factor :    4.00000    2.00000    1.00000
  | Threshold for basis-dependent cutoff potential is   0.000000E+00
  | Found data for basic radial integration grid :    31 points, outermost radius =    7.000 A
  | Found multiplier for basic radial grid :   4
  | Found angular grid specification: user-specified.
  | Specified grid contains     6 separate shells.
  | Check grid settings after all constraints further below.
  | Found free-atom valence shell :  2 s   2.000
  | No ionic wave fns used. Skipping ion_occ.
  | Found request to include minimal basis fns. :     F
  | Found request to include pure gaussian fns. :     T
  | Found contracted cartesian Gaussian basis function :  L = 0 ,   8 elementary Gaussians:
  |   alpha = 0.296467E+05 weight = 0.379433E-04
  |   alpha = 0.442876E+04 weight = 0.296054E-03
  |   alpha = 0.100547E+04 weight = 0.155725E-02
  |   alpha = 0.284153E+03 weight = 0.653232E-02
  |   alpha = 0.925044E+02 weight = 0.231169E-01
  |   alpha = 0.333110E+02 weight = 0.694585E-01
  |   alpha = 0.129116E+02 weight = 0.170144E+00
  |   alpha = 0.526655E+01 weight = 0.316827E+00
  |   In terms of angular momentum, this radial function adds: 
  |     1 s-type basis function
  | Found contracted cartesian Gaussian basis function :  L = 0 ,   2 elementary Gaussians:
  |   alpha = 0.229954E+02 weight = 0.817911E-01
  |   alpha = 0.662364E+01 weight = 0.800000E+00
  |   In terms of angular momentum, this radial function adds: 
  |     1 s-type basis function
  | Found primitive cartesian Gaussian basis function :  0 0.222896E+01
  |   In terms of angular momentum, this radial function adds: 
  |     1 s-type basis function
  | Found primitive cartesian Gaussian basis function :  0 0.953024E+00
  |   In terms of angular momentum, this radial function adds: 
  |     1 s-type basis function
  | Found primitive cartesian Gaussian basis function :  0 0.246516E+00
  |   In terms of angular momentum, this radial function adds: 
  |     1 s-type basis function
  | Found primitive cartesian Gaussian basis function :  0 0.101539E+00
  |   In terms of angular momentum, this radial function adds: 
  |     1 s-type basis function
  | Found primitive cartesian Gaussian basis function :  0 0.415514E-01
  |   In terms of angular momentum, this radial function adds: 
  |     1 s-type basis function
  | Found primitive cartesian Gaussian basis function :  1 0.640000E+01
  |   In terms of angular momentum, this radial function adds: 
  |     3 p-type basis functions
  | Found contracted cartesian Gaussian basis function :  L = 1 ,   4 elementary Gaussians:
  |   alpha = 0.140998E+02 weight = 0.385089E-02
  |   alpha = 0.318032E+01 weight = 0.241524E-01
  |   alpha = 0.904892E+00 weight = 0.979269E-01
  |   alpha = 0.304116E+00 weight = 0.294704E+00
  |   In terms of angular momentum, this radial function adds: 
  |     3 p-type basis functions
  | Found primitive cartesian Gaussian basis function :  1 0.113026E+00
  |   In terms of angular momentum, this radial function adds: 
  |     3 p-type basis functions
  | Found primitive cartesian Gaussian basis function :  1 0.428317E-01
  |   In terms of angular momentum, this radial function adds: 
  |     3 p-type basis functions
  | Found primitive cartesian Gaussian basis function :  2 0.360000E+00
  |   In terms of angular momentum, this radial function adds: 
  |     5 d-type basis functions
  | Found primitive cartesian Gaussian basis function :  2 0.900000E-01
  |   In terms of angular momentum, this radial function adds: 
  |     5 d-type basis functions
  | Found primitive cartesian Gaussian basis function :  3 0.290000E+00
  |   In terms of angular momentum, this radial function adds: 
  |     7 f-type basis functions
  Species Be                  : Missing cutoff potential type.
  Defaulting to exp(1/x)/(1-x)^2 type cutoff potential.
  Species Be: No 'logarithmic' tag. Using default grid for free atom:
  | Default logarithmic grid data [bohr] : 0.1000E-03 0.1000E+03 0.1012E+01
  Species Be: On-site basis accuracy parameter (for Gram-Schmidt orthonormalisation) not specified.
  Using default value basis_acc =  0.1000000E-03.
  Species Be                  : Using default innermost maximum threshold i_radial=  2 for radial functions.
  Species Be                  : Default cutoff onset for free atom density etc. is infinite
  since the product basis is used (hybrid functionals, Hartree-Fock, GW etc.).
  Species Be                  : Basic radial grid will be enhanced according to radial_multiplier =   4, to contain   127 grid points.

  Reading configuration options for species O                   .
  | Found nuclear charge :   8.0000
  | Found atomic mass :    15.999400000000000      amu
  | Found l_max for Hartree potential  :   8
  | Found cutoff potl. onset [A], width [A], scale factor :    4.00000    2.00000    1.00000
  | Threshold for basis-dependent cutoff potential is   0.000000E+00
  | Found data for basic radial integration grid :    36 points, outermost radius =    7.000 A
  | Found multiplier for basic radial grid :   4
  | Found angular grid specification: user-specified.
  | Specified grid contains     6 separate shells.
  | Check grid settings after all constraints further below.
  | Found free-atom valence shell :  2 s   2.000
  | Found free-atom valence shell :  2 p   4.000
  | No ionic wave fns used. Skipping ion_occ.
  | No ionic wave fns used. Skipping ion_occ.
  | Found request to include minimal basis fns. :     F
  | Found request to include pure gaussian fns. :     T
  | Found contracted cartesian Gaussian basis function :  L = 0 ,   8 elementary Gaussians:
  |   alpha = 0.116506E+06 weight = 0.403839E-04
  |   alpha = 0.175043E+05 weight = 0.312551E-03
  |   alpha = 0.399345E+04 weight = 0.163415E-02
  |   alpha = 0.113301E+04 weight = 0.682832E-02
  |   alpha = 0.369996E+03 weight = 0.241244E-01
  |   alpha = 0.133621E+03 weight = 0.727302E-01
  |   alpha = 0.520356E+02 weight = 0.179344E+00
  |   alpha = 0.214619E+02 weight = 0.330596E+00
  |   In terms of angular momentum, this radial function adds: 
  |     1 s-type basis function
  | Found contracted cartesian Gaussian basis function :  L = 0 ,   2 elementary Gaussians:
  |   alpha = 0.898351E+02 weight = 0.964687E-01
  |   alpha = 0.264280E+02 weight = 0.941175E+00
  |   In terms of angular momentum, this radial function adds: 
  |     1 s-type basis function
  | Found primitive cartesian Gaussian basis function :  0 0.928228E+01
  |   In terms of angular momentum, this radial function adds: 
  |     1 s-type basis function
  | Found primitive cartesian Gaussian basis function :  0 0.409477E+01
  |   In terms of angular momentum, this radial function adds: 
  |     1 s-type basis function
  | Found primitive cartesian Gaussian basis function :  0 0.132553E+01
  |   In terms of angular momentum, this radial function adds: 
  |     1 s-type basis function
  | Found primitive cartesian Gaussian basis function :  0 0.518772E+00
  |   In terms of angular momentum, this radial function adds: 
  |     1 s-type basis function
  | Found primitive cartesian Gaussian basis function :  0 0.197727E+00
  |   In terms of angular momentum, this radial function adds: 
  |     1 s-type basis function
  | Found contracted cartesian Gaussian basis function :  L = 1 ,   5 elementary Gaussians:
  |   alpha = 0.191153E+03 weight = 0.251157E-02
  |   alpha = 0.452334E+02 weight = 0.200392E-01
  |   alpha = 0.143535E+02 weight = 0.936091E-01
  |   alpha = 0.524224E+01 weight = 0.306181E+00
  |   alpha = 0.207924E+01 weight = 0.678105E+00
  |   In terms of angular momentum, this radial function adds: 
  |     3 p-type basis functions
  | Found primitive cartesian Gaussian basis function :  1 0.842824E+00
  |   In terms of angular momentum, this radial function adds: 
  |     3 p-type basis functions
  | Found primitive cartesian Gaussian basis function :  1 0.336177E+00
  |   In terms of angular momentum, this radial function adds: 
  |     3 p-type basis functions
  | Found primitive cartesian Gaussian basis function :  1 0.128640E+00
  |   In terms of angular momentum, this radial function adds: 
  |     3 p-type basis functions
  | Found primitive cartesian Gaussian basis function :  2 0.377500E+01
  |   In terms of angular momentum, this radial function adds: 
  |     5 d-type basis functions
  | Found primitive cartesian Gaussian basis function :  2 0.130000E+01
  |   In terms of angular momentum, this radial function adds: 
  |     5 d-type basis functions
  | Found primitive cartesian Gaussian basis function :  2 0.444000E+00
  |   In terms of angular momentum, this radial function adds: 
  |     5 d-type basis functions
  | Found primitive cartesian Gaussian basis function :  3 0.266600E+01
  |   In terms of angular momentum, this radial function adds: 
  |     7 f-type basis functions
  | Found primitive cartesian Gaussian basis function :  3 0.859000E+00
  |   In terms of angular momentum, this radial function adds: 
  |     7 f-type basis functions
  | Found primitive cartesian Gaussian basis function :  4 0.184600E+01
  |   In terms of angular momentum, this radial function adds: 
  |     9 g-type basis functions
  Species O                   : Missing cutoff potential type.
  Defaulting to exp(1/x)/(1-x)^2 type cutoff potential.
  Species O : No 'logarithmic' tag. Using default grid for free atom:
  | Default logarithmic grid data [bohr] : 0.1000E-03 0.1000E+03 0.1012E+01
  Species O : On-site basis accuracy parameter (for Gram-Schmidt orthonormalisation) not specified.
  Using default value basis_acc =  0.1000000E-03.
  Species O                   : Using default innermost maximum threshold i_radial=  2 for radial functions.
  Species O                   : Default cutoff onset for free atom density etc. is infinite
  since the product basis is used (hybrid functionals, Hartree-Fock, GW etc.).
  Species O                   : Basic radial grid will be enhanced according to radial_multiplier =   4, to contain   147 grid points.

  Finished reading input file 'control.in'.

------------------------------------------------------------


------------------------------------------------------------
          Reading geometry description geometry.in.
------------------------------------------------------------
  | The smallest distance between any two atoms is         1.33080000 AA.
  | The first atom of this pair is atom number                      1 .
  | The second atom of this pair is atom number                     2 .
  Input structure read successfully.
  The structure contains        2 atoms,  and a total of         12.000 electrons.

  Input geometry:
  | No unit cell requested.
  | Atomic structure:
  |       Atom                x [A]            y [A]            z [A]
  |    1: Species Be            0.00000000        0.00000000        0.00000000
  |    2: Species O             0.00000000        0.00000000        1.33080000


  Finished reading input file 'geometry.in'.



  Consistency checks for stacksize environment parameter are next.

  | Maximum stacksize for task 0: unlimited
  | Maximum stacksize for task 1: unlimited
  | Maximum stacksize for task 2: unlimited
  | Maximum stacksize for task 3: unlimited
  | Maximum stacksize for task 4: unlimited
  | Maximum stacksize for task 5: unlimited
  | Maximum stacksize for task 6: unlimited
  | Maximum stacksize for task 7: unlimited
  | Maximum stacksize for task 8: unlimited
  | Maximum stacksize for task 9: unlimited
  | Maximum stacksize for task 10: unlimited
  | Maximum stacksize for task 11: unlimited
  | Maximum stacksize for task 12: unlimited
  | Maximum stacksize for task 13: unlimited
  | Maximum stacksize for task 14: unlimited
  | Maximum stacksize for task 15: unlimited
  | Maximum stacksize for task 16: unlimited
  | Maximum stacksize for task 17: unlimited
  | Maximum stacksize for task 18: unlimited
  | Maximum stacksize for task 19: unlimited
  | Maximum stacksize for task 20: unlimited
  | Maximum stacksize for task 21: unlimited
  | Maximum stacksize for task 22: unlimited
  | Maximum stacksize for task 23: unlimited
  | Maximum stacksize for task 24: unlimited
  | Maximum stacksize for task 25: unlimited
  | Maximum stacksize for task 26: unlimited
  | Maximum stacksize for task 27: unlimited
  | Maximum stacksize for task 28: unlimited
  | Maximum stacksize for task 29: unlimited
  | Maximum stacksize for task 30: unlimited
  | Maximum stacksize for task 31: unlimited
  | Maximum stacksize for task 32: unlimited
  | Maximum stacksize for task 33: unlimited
  | Maximum stacksize for task 34: unlimited
  | Maximum stacksize for task 35: unlimited
  | Maximum stacksize for task 36: unlimited
  | Maximum stacksize for task 37: unlimited
  | Maximum stacksize for task 38: unlimited
  | Maximum stacksize for task 39: unlimited
  | Maximum stacksize for task 40: unlimited
  | Maximum stacksize for task 41: unlimited
  | Maximum stacksize for task 42: unlimited
  | Maximum stacksize for task 43: unlimited
  | Maximum stacksize for task 44: unlimited
  | Maximum stacksize for task 45: unlimited
  | Maximum stacksize for task 46: unlimited
  | Maximum stacksize for task 47: unlimited
  | Maximum stacksize for task 48: unlimited
  | Maximum stacksize for task 49: unlimited
  | Maximum stacksize for task 50: unlimited
  | Maximum stacksize for task 51: unlimited
  | Maximum stacksize for task 52: unlimited
  | Maximum stacksize for task 53: unlimited
  | Maximum stacksize for task 54: unlimited
  | Maximum stacksize for task 55: unlimited
  | Maximum stacksize for task 56: unlimited
  | Maximum stacksize for task 57: unlimited
  | Maximum stacksize for task 58: unlimited
  | Maximum stacksize for task 59: unlimited
  | Maximum stacksize for task 60: unlimited
  | Maximum stacksize for task 61: unlimited
  | Maximum stacksize for task 62: unlimited
  | Maximum stacksize for task 63: unlimited
  | Maximum stacksize for task 64: unlimited
  | Maximum stacksize for task 65: unlimited
  | Maximum stacksize for task 66: unlimited
  | Maximum stacksize for task 67: unlimited
  | Maximum stacksize for task 68: unlimited
  | Maximum stacksize for task 69: unlimited
  | Maximum stacksize for task 70: unlimited
  | Maximum stacksize for task 71: unlimited
  | Maximum stacksize for task 72: unlimited
  | Maximum stacksize for task 73: unlimited
  | Maximum stacksize for task 74: unlimited
  | Maximum stacksize for task 75: unlimited
  | Maximum stacksize for task 76: unlimited
  | Maximum stacksize for task 77: unlimited
  | Maximum stacksize for task 78: unlimited
  | Maximum stacksize for task 79: unlimited
  | Maximum stacksize for task 80: unlimited
  | Maximum stacksize for task 81: unlimited
  | Maximum stacksize for task 82: unlimited
  | Maximum stacksize for task 83: unlimited
  | Maximum stacksize for task 84: unlimited
  | Maximum stacksize for task 85: unlimited
  | Maximum stacksize for task 86: unlimited
  | Maximum stacksize for task 87: unlimited
  | Maximum stacksize for task 88: unlimited
  | Maximum stacksize for task 89: unlimited
  | Maximum stacksize for task 90: unlimited
  | Maximum stacksize for task 91: unlimited
  | Maximum stacksize for task 92: unlimited
  | Maximum stacksize for task 93: unlimited
  | Maximum stacksize for task 94: unlimited
  | Maximum stacksize for task 95: unlimited
  | Maximum stacksize for task 96: unlimited
  | Maximum stacksize for task 97: unlimited
  | Maximum stacksize for task 98: unlimited
  | Maximum stacksize for task 99: unlimited
  | Maximum stacksize for task 100: unlimited
  | Maximum stacksize for task 101: unlimited
  | Maximum stacksize for task 102: unlimited
  | Maximum stacksize for task 103: unlimited
  | Maximum stacksize for task 104: unlimited
  | Maximum stacksize for task 105: unlimited
  | Maximum stacksize for task 106: unlimited
  | Maximum stacksize for task 107: unlimited
  | Maximum stacksize for task 108: unlimited
  | Maximum stacksize for task 109: unlimited
  | Maximum stacksize for task 110: unlimited
  | Maximum stacksize for task 111: unlimited
  | Maximum stacksize for task 112: unlimited
  | Maximum stacksize for task 113: unlimited
  | Maximum stacksize for task 114: unlimited
  | Maximum stacksize for task 115: unlimited
  | Maximum stacksize for task 116: unlimited
  | Maximum stacksize for task 117: unlimited
  | Maximum stacksize for task 118: unlimited
  | Maximum stacksize for task 119: unlimited
  | Maximum stacksize for task 120: unlimited
  | Maximum stacksize for task 121: unlimited
  | Maximum stacksize for task 122: unlimited
  | Maximum stacksize for task 123: unlimited
  | Maximum stacksize for task 124: unlimited
  | Maximum stacksize for task 125: unlimited
  | Maximum stacksize for task 126: unlimited
  | Maximum stacksize for task 127: unlimited
  | Current stacksize for task 0: unlimited
  | Current stacksize for task 1: unlimited
  | Current stacksize for task 2: unlimited
  | Current stacksize for task 3: unlimited
  | Current stacksize for task 4: unlimited
  | Current stacksize for task 5: unlimited
  | Current stacksize for task 6: unlimited
  | Current stacksize for task 7: unlimited
  | Current stacksize for task 8: unlimited
  | Current stacksize for task 9: unlimited
  | Current stacksize for task 10: unlimited
  | Current stacksize for task 11: unlimited
  | Current stacksize for task 12: unlimited
  | Current stacksize for task 13: unlimited
  | Current stacksize for task 14: unlimited
  | Current stacksize for task 15: unlimited
  | Current stacksize for task 16: unlimited
  | Current stacksize for task 17: unlimited
  | Current stacksize for task 18: unlimited
  | Current stacksize for task 19: unlimited
  | Current stacksize for task 20: unlimited
  | Current stacksize for task 21: unlimited
  | Current stacksize for task 22: unlimited
  | Current stacksize for task 23: unlimited
  | Current stacksize for task 24: unlimited
  | Current stacksize for task 25: unlimited
  | Current stacksize for task 26: unlimited
  | Current stacksize for task 27: unlimited
  | Current stacksize for task 28: unlimited
  | Current stacksize for task 29: unlimited
  | Current stacksize for task 30: unlimited
  | Current stacksize for task 31: unlimited
  | Current stacksize for task 32: unlimited
  | Current stacksize for task 33: unlimited
  | Current stacksize for task 34: unlimited
  | Current stacksize for task 35: unlimited
  | Current stacksize for task 36: unlimited
  | Current stacksize for task 37: unlimited
  | Current stacksize for task 38: unlimited
  | Current stacksize for task 39: unlimited
  | Current stacksize for task 40: unlimited
  | Current stacksize for task 41: unlimited
  | Current stacksize for task 42: unlimited
  | Current stacksize for task 43: unlimited
  | Current stacksize for task 44: unlimited
  | Current stacksize for task 45: unlimited
  | Current stacksize for task 46: unlimited
  | Current stacksize for task 47: unlimited
  | Current stacksize for task 48: unlimited
  | Current stacksize for task 49: unlimited
  | Current stacksize for task 50: unlimited
  | Current stacksize for task 51: unlimited
  | Current stacksize for task 52: unlimited
  | Current stacksize for task 53: unlimited
  | Current stacksize for task 54: unlimited
  | Current stacksize for task 55: unlimited
  | Current stacksize for task 56: unlimited
  | Current stacksize for task 57: unlimited
  | Current stacksize for task 58: unlimited
  | Current stacksize for task 59: unlimited
  | Current stacksize for task 60: unlimited
  | Current stacksize for task 61: unlimited
  | Current stacksize for task 62: unlimited
  | Current stacksize for task 63: unlimited
  | Current stacksize for task 64: unlimited
  | Current stacksize for task 65: unlimited
  | Current stacksize for task 66: unlimited
  | Current stacksize for task 67: unlimited
  | Current stacksize for task 68: unlimited
  | Current stacksize for task 69: unlimited
  | Current stacksize for task 70: unlimited
  | Current stacksize for task 71: unlimited
  | Current stacksize for task 72: unlimited
  | Current stacksize for task 73: unlimited
  | Current stacksize for task 74: unlimited
  | Current stacksize for task 75: unlimited
  | Current stacksize for task 76: unlimited
  | Current stacksize for task 77: unlimited
  | Current stacksize for task 78: unlimited
  | Current stacksize for task 79: unlimited
  | Current stacksize for task 80: unlimited
  | Current stacksize for task 81: unlimited
  | Current stacksize for task 82: unlimited
  | Current stacksize for task 83: unlimited
  | Current stacksize for task 84: unlimited
  | Current stacksize for task 85: unlimited
  | Current stacksize for task 86: unlimited
  | Current stacksize for task 87: unlimited
  | Current stacksize for task 88: unlimited
  | Current stacksize for task 89: unlimited
  | Current stacksize for task 90: unlimited
  | Current stacksize for task 91: unlimited
  | Current stacksize for task 92: unlimited
  | Current stacksize for task 93: unlimited
  | Current stacksize for task 94: unlimited
  | Current stacksize for task 95: unlimited
  | Current stacksize for task 96: unlimited
  | Current stacksize for task 97: unlimited
  | Current stacksize for task 98: unlimited
  | Current stacksize for task 99: unlimited
  | Current stacksize for task 100: unlimited
  | Current stacksize for task 101: unlimited
  | Current stacksize for task 102: unlimited
  | Current stacksize for task 103: unlimited
  | Current stacksize for task 104: unlimited
  | Current stacksize for task 105: unlimited
  | Current stacksize for task 106: unlimited
  | Current stacksize for task 107: unlimited
  | Current stacksize for task 108: unlimited
  | Current stacksize for task 109: unlimited
  | Current stacksize for task 110: unlimited
  | Current stacksize for task 111: unlimited
  | Current stacksize for task 112: unlimited
  | Current stacksize for task 113: unlimited
  | Current stacksize for task 114: unlimited
  | Current stacksize for task 115: unlimited
  | Current stacksize for task 116: unlimited
  | Current stacksize for task 117: unlimited
  | Current stacksize for task 118: unlimited
  | Current stacksize for task 119: unlimited
  | Current stacksize for task 120: unlimited
  | Current stacksize for task 121: unlimited
  | Current stacksize for task 122: unlimited
  | Current stacksize for task 123: unlimited
  | Current stacksize for task 124: unlimited
  | Current stacksize for task 125: unlimited
  | Current stacksize for task 126: unlimited
  | Current stacksize for task 127: unlimited

  Consistency checks for the contents of control.in are next.

  MPI_IN_PLACE appears to work with this MPI implementation.
  | Keeping use_mpi_in_place .true. (see manual).
  Explicit treatment of the Coulomb operator is needed, but the RI method is not specified.
  Coulomb operator: Defaulting to 'RI-V' resolution of identity - RI_type = V
  Species Be: Using default value for prodbas_acc =   1.000000E-02.
  Species Be: Using default value max_l_prodbas =     5.
  Species O: Using default value for prodbas_acc =   1.000000E-02.
  Species O: Using default value max_l_prodbas =     5.
 * Species O: Specified min. number of angular integration points is   110
 * The angular momenta for this species require   194 for RI_type 'V'. Increasing angular_min to   194.
 * Species O: Grid shell     1 contains only   110 angular integration points.
 * Increasing to angular_min =   194 integration points.
 * This change is related to the three-center integrals used in RI_method 'V'.
  Target number of points in a grid batch is not set. Defaulting to  100
  Method for grid partitioning is not set. Defaulting to parallel hash+maxmin partitioning.
  Batch size limit is not set. Defaulting to    200
  By default, will store active basis functions for each batch.
  If in need of memory, prune_basis_once .false. can be used to disable this option.
  communication_type for Hartree potential was not specified.
  Defaulting to calc_hartree .
  Pulay mixer: Number of initial linear mixing iterations not set.
  Defaulting to    0 iterations.
  Work space size for distributed Hartree potential not set.
  Defaulting to   0.200000E+03 MB.
  Algorithm-dependent basis array size parameters:
  | n_max_pulay                         :       10
  Presetting      1001 iterations before the initial mixing cycle
  is restarted anyway using the sc_init_iter criterion / keyword.
  Presetting a factor      1.000 between actual scf density residual
  and density convergence criterion sc_accuracy_rho below which sc_init_iter
  takes no effect.
  Calculation of forces was not defined in control.in. No forces will be calculated.
  Geometry relaxation not requested: no relaxation will be performed.
  No accuracy limit for integral partition fn. given. Defaulting to  0.1000E-14.
  No threshold value for u(r) in integrations given. Defaulting to  0.1000E-05.
  No accuracy for occupation numbers given. Defaulting to  0.1000E-12.
  No threshold value for occupation numbers given. Defaulting to  0.0000E+00.
  No accuracy for fermi level given. Defaulting to  0.1000E-19.
  Maximum # of iterations to find E_F not set. Defaulting to  200.
  Will not use alltoall communication since running on < 1024 CPUs.
  Partitioning for Hartree potential was not defined. Using partition_type for integrals.
  | Reporting present value of keyword multip_moments_threshold  :       0.10000000E-09
  | This value may affect high angular momentum components of the Hartree potential in periodic systems.
  * Doing correlated calculations, so all empty single-particle states will be included.
  No q(lm)/r^(l+1) cutoff set for long-range Hartree potential.
  | Using default value of  0.100000E-09 .
  | Verify using the multipole_threshold keyword.
  Defaulting to new monopole extrapolation.
  Density update method: density matrix based density update selected.
  Charge integration errors on the 3D integration grid will be compensated
  by explicit normalization and distribution of residual charges.
  Use the "compensate_multipole_errors" flag to change this behaviour.
  Default to 1D ("use_logsbt") integrations for auxiliary 2-center integrals.
  Default onset of logarithmic r-grid for SBT is -38.000000000000
  Default onset of logarithmic k-grid for SBT is -25.000000000000
  Default range of logarithmic r- and k-grid for SBT is  45.000000000000
  Default number of logarithmic r- and k-grid for SBT is   4096
  *** Contour Deformation: Only support 2D parallization. Switching.
  Set 'collect_eigenvectors' to be '.true.' for GW/RPA/MP2, SCREX/COHSEX cluster calculations
  Set 'collect_eigenvectors' to be '.true.' for qpe_calc (quasiparticle energy).
  Set 'collect_eigenvectors' to be '.true.' for KS_method lapack_fast and serial.

  Consistency checks for the contents of geometry.in are next.

  Number of empty states per atom not set in control.in .
  | Since you are using a method that relies on the unoccupied spectrum
  | (MP2,GW,RPA et al.), will use the full Hamiltonian size (see below)
  | as the max. possible number of states (occupied plus empty).

  Structure-dependent array size parameters: 
  | Maximum number of distinct radial functions  :       31
  | Maximum number of basis functions            :       93
  | Number of Kohn-Sham states (occupied + empty):       93
------------------------------------------------------------

------------------------------------------------------------
          Preparing all fixed parts of the calculation.
------------------------------------------------------------
  Determining machine precision:
     2.2250738585072014E-308
  Setting up grids for atomic and cluster calculations.

  Creating wave function, potential, and density for free atoms.
  Runtime choices for atomic solver:
  | atomic solver xc        : PBE
  | compute density gradient: 1
  | compute kinetic density : F

  Species: Be

  List of occupied orbitals and eigenvalues:
    n    l              occ      energy [Ha]    energy [eV]
    1    0           2.0000        -3.902611      -106.1954
    2    0           2.0000        -0.206120        -5.6088


  Species: O

  List of occupied orbitals and eigenvalues:
    n    l              occ      energy [Ha]    energy [eV]
    1    0           2.0000       -18.898644      -514.2583
    2    0           2.0000        -0.878848       -23.9147
    2    1           4.0000        -0.332128        -9.0377


  Adding cutoff potential to free-atom effective potential.
  Creating fixed part of basis set: Ionic, confined, hydrogenic.

  Be                   Gaussian:

  List of cartesian Gaussian basis orbitals: 
    L    l
    0    0
    0    0
    0    0
    0    0
    0    0
    0    0
    0    0
    1    1
    1    1
    1    1
    1    1
    2    2
    2    2
    3    3


  O                    Gaussian:

  List of cartesian Gaussian basis orbitals: 
    L    l
    0    0
    0    0
    0    0
    0    0
    0    0
    0    0
    0    0
    1    1
    1    1
    1    1
    1    1
    2    2
    2    2
    2    2
    3    3
    3    3
    4    4

  Creating atomic-like basis functions for current effective potential.
  Assembling full basis from fixed parts.
  | Species Be : gaussian orbital   0 s accepted.
  | Species Be : gaussian orbital   0 s accepted.
  | Species Be : gaussian orbital   0 s accepted.
  | Species Be : gaussian orbital   0 s accepted.
  | Species Be : gaussian orbital   0 s accepted.
  | Species Be : gaussian orbital   0 s accepted.
  | Species Be : gaussian orbital   0 s accepted.
  | Species Be : gaussian orbital   1 p accepted.
  | Species Be : gaussian orbital   1 p accepted.
  | Species Be : gaussian orbital   1 p accepted.
  | Species Be : gaussian orbital   1 p accepted.
  | Species Be : gaussian orbital   2 d accepted.
  | Species Be : gaussian orbital   2 d accepted.
  | Species Be : gaussian orbital   3 f accepted.
  | Species O : gaussian orbital   0 s accepted.
  | Species O : gaussian orbital   0 s accepted.
  | Species O : gaussian orbital   0 s accepted.
  | Species O : gaussian orbital   0 s accepted.
  | Species O : gaussian orbital   0 s accepted.
  | Species O : gaussian orbital   0 s accepted.
  | Species O : gaussian orbital   0 s accepted.
  | Species O : gaussian orbital   1 p accepted.
  | Species O : gaussian orbital   1 p accepted.
  | Species O : gaussian orbital   1 p accepted.
  | Species O : gaussian orbital   1 p accepted.
  | Species O : gaussian orbital   2 d accepted.
  | Species O : gaussian orbital   2 d accepted.
  | Species O : gaussian orbital   2 d accepted.
  | Species O : gaussian orbital   3 f accepted.
  | Species O : gaussian orbital   3 f accepted.
  | Species O : gaussian orbital   4 g accepted.

  Basis size parameters after reduction:
  | Total number of radial functions:       31
  | Total number of basis functions :       93

  Per-task memory consumption for arrays in subroutine allocate_ext:
  |           7.747580MB.
  Testing on-site integration grid accuracy.
  |  Species  Function  <phi|h_atom|phi> (log., in eV)  <phi|h_atom|phi> (rad., in eV)
           1        1                -64.9658040387                -64.9659109911
           1        2               1491.3252807297               1491.3240719772
           1        3                220.5573971004                220.5573630061
           1        4                222.1943155774                222.1942561171
           1        5                 74.7912751443                 74.7912574966
           1        6                 38.6841003964                 38.6840926660
           1        7                 18.9807274029                 18.9807241007
           1        8                250.4569581891                250.4569582296
           1        9                 16.2660887662                 16.2660894928
           1       10                 14.1263790522                 14.1263792477
           1       11                  8.0021456041                  8.0021456388
           1       12                 19.4009576140                 19.4009577341
           1       13                  8.6759703194                  8.6759702863
           1       14                 25.9958364311                 25.9958363354
           2       15               -362.5768878964               -362.5780591086
           2       16               5562.5547625713               5562.5382888066
           2       17               1025.0233784559               1025.0223449092
           2       18                982.4978511341                982.4966498750
           2       19                433.1899307944                433.1894895256
           2       20                211.6154267980                211.6152499414
           2       21                 95.6225149986                 95.6224483249
           2       22                 18.1342168000                 18.1342169346
           2       23                 65.5300295478                 65.5300294570
           2       24                 49.0580174448                 49.0580169131
           2       25                 26.6733000437                 26.6732994262
           2       26                218.9177453526                218.9177448197
           2       27                147.8581850346                147.8581836466
           2       28                 71.7831007132                 71.7830993621
           2       29                249.7504167360                249.7504160676
           2       30                120.9441017008                120.9441003847
           2       31                235.2477364771                235.2477349267

  Preparing densities etc. for the partition functions (integrals / Hartree potential).

  Preparations completed.
  max(cpu_time)          :      0.158 s.
  Wall clock time (cpu1) :      0.169 s.
------------------------------------------------------------

  Initializing index lists of integration centers etc. from given atomic structure:
  | Number of centers in hartree potential         :         2
  | Number of centers in hartree multipole         :         2
  | Number of centers in electron density summation:         2
  | Number of centers in basis integrals           :         2
  | Number of centers in integrals                 :         2
  | Number of centers in hamiltonian               :         2

------------------------------------------------------------
          Begin self-consistency loop: Initialization.

          Date     :  20240515, Time     :  123126.810
------------------------------------------------------------
  * Using 128 tasks for Scalapack Eigenvalue solver.
  Detailed listing of tasks and assigned k-points:
  (for non-periodic systems, the "k-point" denotes an internal label only)
   Task     0 k-point     1 on n2cn0173
   Task     1 k-point     1 on n2cn0173
   Task     2 k-point     1 on n2cn0173
   Task     3 k-point     1 on n2cn0173
   Task     4 k-point     1 on n2cn0173
   Task     5 k-point     1 on n2cn0173
   Task     6 k-point     1 on n2cn0173
   Task     7 k-point     1 on n2cn0173
   Task     8 k-point     1 on n2cn0173
   Task     9 k-point     1 on n2cn0173
   Task    10 k-point     1 on n2cn0173
   Task    11 k-point     1 on n2cn0173
   Task    12 k-point     1 on n2cn0173
   Task    13 k-point     1 on n2cn0173
   Task    14 k-point     1 on n2cn0173
   Task    15 k-point     1 on n2cn0173
   Task    16 k-point     1 on n2cn0173
   Task    17 k-point     1 on n2cn0173
   Task    18 k-point     1 on n2cn0173
   Task    19 k-point     1 on n2cn0173
   Task    20 k-point     1 on n2cn0173
   Task    21 k-point     1 on n2cn0173
   Task    22 k-point     1 on n2cn0173
   Task    23 k-point     1 on n2cn0173
   Task    24 k-point     1 on n2cn0173
   Task    25 k-point     1 on n2cn0173
   Task    26 k-point     1 on n2cn0173
   Task    27 k-point     1 on n2cn0173
   Task    28 k-point     1 on n2cn0173
   Task    29 k-point     1 on n2cn0173
   Task    30 k-point     1 on n2cn0173
   Task    31 k-point     1 on n2cn0173
   Task    32 k-point     1 on n2cn0173
   Task    33 k-point     1 on n2cn0173
   Task    34 k-point     1 on n2cn0173
   Task    35 k-point     1 on n2cn0173
   Task    36 k-point     1 on n2cn0173
   Task    37 k-point     1 on n2cn0173
   Task    38 k-point     1 on n2cn0173
   Task    39 k-point     1 on n2cn0173
   Task    40 k-point     1 on n2cn0173
   Task    41 k-point     1 on n2cn0173
   Task    42 k-point     1 on n2cn0173
   Task    43 k-point     1 on n2cn0173
   Task    44 k-point     1 on n2cn0173
   Task    45 k-point     1 on n2cn0173
   Task    46 k-point     1 on n2cn0173
   Task    47 k-point     1 on n2cn0173
   Task    48 k-point     1 on n2cn0173
   Task    49 k-point     1 on n2cn0173
   Task    50 k-point     1 on n2cn0173
   Task    51 k-point     1 on n2cn0173
   Task    52 k-point     1 on n2cn0173
   Task    53 k-point     1 on n2cn0173
   Task    54 k-point     1 on n2cn0173
   Task    55 k-point     1 on n2cn0173
   Task    56 k-point     1 on n2cn0173
   Task    57 k-point     1 on n2cn0173
   Task    58 k-point     1 on n2cn0173
   Task    59 k-point     1 on n2cn0173
   Task    60 k-point     1 on n2cn0173
   Task    61 k-point     1 on n2cn0173
   Task    62 k-point     1 on n2cn0173
   Task    63 k-point     1 on n2cn0173
   Task    64 k-point     1 on n2cn0173
   Task    65 k-point     1 on n2cn0173
   Task    66 k-point     1 on n2cn0173
   Task    67 k-point     1 on n2cn0173
   Task    68 k-point     1 on n2cn0173
   Task    69 k-point     1 on n2cn0173
   Task    70 k-point     1 on n2cn0173
   Task    71 k-point     1 on n2cn0173
   Task    72 k-point     1 on n2cn0173
   Task    73 k-point     1 on n2cn0173
   Task    74 k-point     1 on n2cn0173
   Task    75 k-point     1 on n2cn0173
   Task    76 k-point     1 on n2cn0173
   Task    77 k-point     1 on n2cn0173
   Task    78 k-point     1 on n2cn0173
   Task    79 k-point     1 on n2cn0173
   Task    80 k-point     1 on n2cn0173
   Task    81 k-point     1 on n2cn0173
   Task    82 k-point     1 on n2cn0173
   Task    83 k-point     1 on n2cn0173
   Task    84 k-point     1 on n2cn0173
   Task    85 k-point     1 on n2cn0173
   Task    86 k-point     1 on n2cn0173
   Task    87 k-point     1 on n2cn0173
   Task    88 k-point     1 on n2cn0173
   Task    89 k-point     1 on n2cn0173
   Task    90 k-point     1 on n2cn0173
   Task    91 k-point     1 on n2cn0173
   Task    92 k-point     1 on n2cn0173
   Task    93 k-point     1 on n2cn0173
   Task    94 k-point     1 on n2cn0173
   Task    95 k-point     1 on n2cn0173
   Task    96 k-point     1 on n2cn0173
   Task    97 k-point     1 on n2cn0173
   Task    98 k-point     1 on n2cn0173
   Task    99 k-point     1 on n2cn0173
   Task   100 k-point     1 on n2cn0173
   Task   101 k-point     1 on n2cn0173
   Task   102 k-point     1 on n2cn0173
   Task   103 k-point     1 on n2cn0173
   Task   104 k-point     1 on n2cn0173
   Task   105 k-point     1 on n2cn0173
   Task   106 k-point     1 on n2cn0173
   Task   107 k-point     1 on n2cn0173
   Task   108 k-point     1 on n2cn0173
   Task   109 k-point     1 on n2cn0173
   Task   110 k-point     1 on n2cn0173
   Task   111 k-point     1 on n2cn0173
   Task   112 k-point     1 on n2cn0173
   Task   113 k-point     1 on n2cn0173
   Task   114 k-point     1 on n2cn0173
   Task   115 k-point     1 on n2cn0173
   Task   116 k-point     1 on n2cn0173
   Task   117 k-point     1 on n2cn0173
   Task   118 k-point     1 on n2cn0173
   Task   119 k-point     1 on n2cn0173
   Task   120 k-point     1 on n2cn0173
   Task   121 k-point     1 on n2cn0173
   Task   122 k-point     1 on n2cn0173
   Task   123 k-point     1 on n2cn0173
   Task   124 k-point     1 on n2cn0173
   Task   125 k-point     1 on n2cn0173
   Task   126 k-point     1 on n2cn0173
   Task   127 k-point     1 on n2cn0173
  Tasks:   128 split into     16 X      8 BLACS grid
  Calculating block size based on n_basis =           93  max_nprow =           16  max_npcol =            8
  ScaLAPACK block size set to:            4
  Allocating        0.001 MB for ovlp
  Allocating        0.001 MB for ham
  Allocating        0.001 MB for eigenvec
  Required Scalapack workspace - INTEGER:          717  REAL:           937
  Partitioning the integration grid into batches with parallel hashing+maxmin method.
  | Number of batches:     1204
  | Maximal batch size:     200
  | Minimal batch size:       2
  | Average batch size:      88.462
  | Standard deviation of batch sizes:      33.173

  Integration load balanced across   128 MPI tasks.
  Work distribution over tasks is as follows:
  Task     0 has        798 integration points.
  Task     1 has        772 integration points.
  Task     2 has        834 integration points.
  Task     3 has        772 integration points.
  Task     4 has        774 integration points.
  Task     5 has        902 integration points.
  Task     6 has        940 integration points.
  Task     7 has        772 integration points.
  Task     8 has        774 integration points.
  Task     9 has        788 integration points.
  Task    10 has        914 integration points.
  Task    11 has        898 integration points.
  Task    12 has        784 integration points.
  Task    13 has        807 integration points.
  Task    14 has        782 integration points.
  Task    15 has        796 integration points.
  Task    16 has        793 integration points.
  Task    17 has        823 integration points.
  Task    18 has        883 integration points.
  Task    19 has        882 integration points.
  Task    20 has        832 integration points.
  Task    21 has        886 integration points.
  Task    22 has        804 integration points.
  Task    23 has        800 integration points.
  Task    24 has        874 integration points.
  Task    25 has        791 integration points.
  Task    26 has        904 integration points.
  Task    27 has        802 integration points.
  Task    28 has        884 integration points.
  Task    29 has        800 integration points.
  Task    30 has        780 integration points.
  Task    31 has        879 integration points.
  Task    32 has        810 integration points.
  Task    33 has        835 integration points.
  Task    34 has        774 integration points.
  Task    35 has        775 integration points.
  Task    36 has        771 integration points.
  Task    37 has        778 integration points.
  Task    38 has        871 integration points.
  Task    39 has        787 integration points.
  Task    40 has        805 integration points.
  Task    41 has        833 integration points.
  Task    42 has        795 integration points.
  Task    43 has        785 integration points.
  Task    44 has        771 integration points.
  Task    45 has        804 integration points.
  Task    46 has        884 integration points.
  Task    47 has        867 integration points.
  Task    48 has        771 integration points.
  Task    49 has        882 integration points.
  Task    50 has        901 integration points.
  Task    51 has        803 integration points.
  Task    52 has        901 integration points.
  Task    53 has        885 integration points.
  Task    54 has        870 integration points.
  Task    55 has        835 integration points.
  Task    56 has        831 integration points.
  Task    57 has        801 integration points.
  Task    58 has        788 integration points.
  Task    59 has        916 integration points.
  Task    60 has        799 integration points.
  Task    61 has        818 integration points.
  Task    62 has        822 integration points.
  Task    63 has        787 integration points.
  Task    64 has        877 integration points.
  Task    65 has        800 integration points.
  Task    66 has        874 integration points.
  Task    67 has        827 integration points.
  Task    68 has        836 integration points.
  Task    69 has        798 integration points.
  Task    70 has        774 integration points.
  Task    71 has        825 integration points.
  Task    72 has        805 integration points.
  Task    73 has        831 integration points.
  Task    74 has        873 integration points.
  Task    75 has        835 integration points.
  Task    76 has        874 integration points.
  Task    77 has        821 integration points.
  Task    78 has        807 integration points.
  Task    79 has        881 integration points.
  Task    80 has        781 integration points.
  Task    81 has        810 integration points.
  Task    82 has        883 integration points.
  Task    83 has        804 integration points.
  Task    84 has        786 integration points.
  Task    85 has        872 integration points.
  Task    86 has        823 integration points.
  Task    87 has        837 integration points.
  Task    88 has        800 integration points.
  Task    89 has        879 integration points.
  Task    90 has        903 integration points.
  Task    91 has        790 integration points.
  Task    92 has        788 integration points.
  Task    93 has        886 integration points.
  Task    94 has        900 integration points.
  Task    95 has        829 integration points.
  Task    96 has        886 integration points.
  Task    97 has        833 integration points.
  Task    98 has        872 integration points.
  Task    99 has        799 integration points.
  Task   100 has        790 integration points.
  Task   101 has        773 integration points.
  Task   102 has        889 integration points.
  Task   103 has        887 integration points.
  Task   104 has        879 integration points.
  Task   105 has        874 integration points.
  Task   106 has        782 integration points.
  Task   107 has        883 integration points.
  Task   108 has        801 integration points.
  Task   109 has        880 integration points.
  Task   110 has        772 integration points.
  Task   111 has        814 integration points.
  Task   112 has        789 integration points.
  Task   113 has        902 integration points.
  Task   114 has        814 integration points.
  Task   115 has        795 integration points.
  Task   116 has        885 integration points.
  Task   117 has        785 integration points.
  Task   118 has        882 integration points.
  Task   119 has        874 integration points.
  Task   120 has        833 integration points.
  Task   121 has        802 integration points.
  Task   122 has        886 integration points.
  Task   123 has        836 integration points.
  Task   124 has        823 integration points.
  Task   125 has        791 integration points.
  Task   126 has        940 integration points.
  Task   127 has        869 integration points.
  Initializing partition tables, free-atom densities, potentials, etc. across the integration grid (initialize_grid_storage).
  | Net number of integration points:   106508
  | of which are non-zero points    :   106375
  Renormalizing the initial density to the exact electron count on the 3D integration grid.
  | Initial density: Formal number of electrons (from input files) :      12.0000000000
  | Integrated number of electrons on 3D grid     :      12.0000002485
  | Charge integration error                      :       0.0000002485
  | Normalization factor for density and gradient :       0.9999999793
  Renormalizing the free-atom superposition density to the exact electron count on the 3D integration grid.
  | Formal number of electrons (from input files) :      12.0000000000
  | Integrated number of electrons on 3D grid     :      12.0000002485
  | Charge integration error                      :       0.0000002485
  | Normalization factor for density and gradient :       0.9999999793
  Obtaining max. number of non-zero basis functions in each batch (get_n_compute_maxes).
  | Maximal number of non-zero basis functions:       93 in task     0
  | Maximal number of non-zero basis functions:       88 in task     1
  | Maximal number of non-zero basis functions:       93 in task     2
  | Maximal number of non-zero basis functions:       88 in task     3
  | Maximal number of non-zero basis functions:       93 in task     4
  | Maximal number of non-zero basis functions:       88 in task     5
  | Maximal number of non-zero basis functions:       88 in task     6
  | Maximal number of non-zero basis functions:       87 in task     7
  | Maximal number of non-zero basis functions:       91 in task     8
  | Maximal number of non-zero basis functions:       88 in task     9
  | Maximal number of non-zero basis functions:       91 in task    10
  | Maximal number of non-zero basis functions:       88 in task    11
  | Maximal number of non-zero basis functions:       92 in task    12
  | Maximal number of non-zero basis functions:       93 in task    13
  | Maximal number of non-zero basis functions:       93 in task    14
  | Maximal number of non-zero basis functions:       88 in task    15
  | Maximal number of non-zero basis functions:       91 in task    16
  | Maximal number of non-zero basis functions:       93 in task    17
  | Maximal number of non-zero basis functions:       88 in task    18
  | Maximal number of non-zero basis functions:       91 in task    19
  | Maximal number of non-zero basis functions:       91 in task    20
  | Maximal number of non-zero basis functions:       88 in task    21
  | Maximal number of non-zero basis functions:       93 in task    22
  | Maximal number of non-zero basis functions:       90 in task    23
  | Maximal number of non-zero basis functions:       88 in task    24
  | Maximal number of non-zero basis functions:       90 in task    25
  | Maximal number of non-zero basis functions:       93 in task    26
  | Maximal number of non-zero basis functions:       88 in task    27
  | Maximal number of non-zero basis functions:       90 in task    28
  | Maximal number of non-zero basis functions:       90 in task    29
  | Maximal number of non-zero basis functions:       89 in task    30
  | Maximal number of non-zero basis functions:       91 in task    31
  | Maximal number of non-zero basis functions:       90 in task    32
  | Maximal number of non-zero basis functions:       86 in task    33
  | Maximal number of non-zero basis functions:       91 in task    34
  | Maximal number of non-zero basis functions:       86 in task    35
  | Maximal number of non-zero basis functions:       88 in task    36
  | Maximal number of non-zero basis functions:       91 in task    37
  | Maximal number of non-zero basis functions:       88 in task    38
  | Maximal number of non-zero basis functions:       88 in task    39
  | Maximal number of non-zero basis functions:       88 in task    40
  | Maximal number of non-zero basis functions:       90 in task    41
  | Maximal number of non-zero basis functions:       90 in task    42
  | Maximal number of non-zero basis functions:       91 in task    43
  | Maximal number of non-zero basis functions:       90 in task    44
  | Maximal number of non-zero basis functions:       93 in task    45
  | Maximal number of non-zero basis functions:       92 in task    46
  | Maximal number of non-zero basis functions:       90 in task    47
  | Maximal number of non-zero basis functions:       90 in task    48
  | Maximal number of non-zero basis functions:       91 in task    49
  | Maximal number of non-zero basis functions:       90 in task    50
  | Maximal number of non-zero basis functions:       90 in task    51
  | Maximal number of non-zero basis functions:       93 in task    52
  | Maximal number of non-zero basis functions:       91 in task    53
  | Maximal number of non-zero basis functions:       90 in task    54
  | Maximal number of non-zero basis functions:       91 in task    55
  | Maximal number of non-zero basis functions:       91 in task    56
  | Maximal number of non-zero basis functions:       91 in task    57
  | Maximal number of non-zero basis functions:       90 in task    58
  | Maximal number of non-zero basis functions:       87 in task    59
  | Maximal number of non-zero basis functions:       88 in task    60
  | Maximal number of non-zero basis functions:       91 in task    61
  | Maximal number of non-zero basis functions:       93 in task    62
  | Maximal number of non-zero basis functions:       89 in task    63
  | Maximal number of non-zero basis functions:       90 in task    64
  | Maximal number of non-zero basis functions:       91 in task    65
  | Maximal number of non-zero basis functions:       93 in task    66
  | Maximal number of non-zero basis functions:       91 in task    67
  | Maximal number of non-zero basis functions:       91 in task    68
  | Maximal number of non-zero basis functions:       84 in task    69
  | Maximal number of non-zero basis functions:       88 in task    70
  | Maximal number of non-zero basis functions:       90 in task    71
  | Maximal number of non-zero basis functions:       88 in task    72
  | Maximal number of non-zero basis functions:       91 in task    73
  | Maximal number of non-zero basis functions:       88 in task    74
  | Maximal number of non-zero basis functions:       90 in task    75
  | Maximal number of non-zero basis functions:       90 in task    76
  | Maximal number of non-zero basis functions:       88 in task    77
  | Maximal number of non-zero basis functions:       93 in task    78
  | Maximal number of non-zero basis functions:       93 in task    79
  | Maximal number of non-zero basis functions:       91 in task    80
  | Maximal number of non-zero basis functions:       88 in task    81
  | Maximal number of non-zero basis functions:       91 in task    82
  | Maximal number of non-zero basis functions:       88 in task    83
  | Maximal number of non-zero basis functions:       88 in task    84
  | Maximal number of non-zero basis functions:       90 in task    85
  | Maximal number of non-zero basis functions:       88 in task    86
  | Maximal number of non-zero basis functions:       93 in task    87
  | Maximal number of non-zero basis functions:       93 in task    88
  | Maximal number of non-zero basis functions:       89 in task    89
  | Maximal number of non-zero basis functions:       93 in task    90
  | Maximal number of non-zero basis functions:       90 in task    91
  | Maximal number of non-zero basis functions:       89 in task    92
  | Maximal number of non-zero basis functions:       93 in task    93
  | Maximal number of non-zero basis functions:       93 in task    94
  | Maximal number of non-zero basis functions:       93 in task    95
  | Maximal number of non-zero basis functions:       88 in task    96
  | Maximal number of non-zero basis functions:       90 in task    97
  | Maximal number of non-zero basis functions:       88 in task    98
  | Maximal number of non-zero basis functions:       88 in task    99
  | Maximal number of non-zero basis functions:       93 in task   100
  | Maximal number of non-zero basis functions:       87 in task   101
  | Maximal number of non-zero basis functions:       90 in task   102
  | Maximal number of non-zero basis functions:       92 in task   103
  | Maximal number of non-zero basis functions:       90 in task   104
  | Maximal number of non-zero basis functions:       88 in task   105
  | Maximal number of non-zero basis functions:       91 in task   106
  | Maximal number of non-zero basis functions:       93 in task   107
  | Maximal number of non-zero basis functions:       90 in task   108
  | Maximal number of non-zero basis functions:       93 in task   109
  | Maximal number of non-zero basis functions:       90 in task   110
  | Maximal number of non-zero basis functions:       90 in task   111
  | Maximal number of non-zero basis functions:       93 in task   112
  | Maximal number of non-zero basis functions:       93 in task   113
  | Maximal number of non-zero basis functions:       90 in task   114
  | Maximal number of non-zero basis functions:       88 in task   115
  | Maximal number of non-zero basis functions:       90 in task   116
  | Maximal number of non-zero basis functions:       89 in task   117
  | Maximal number of non-zero basis functions:       91 in task   118
  | Maximal number of non-zero basis functions:       88 in task   119
  | Maximal number of non-zero basis functions:       91 in task   120
  | Maximal number of non-zero basis functions:       89 in task   121
  | Maximal number of non-zero basis functions:       92 in task   122
  | Maximal number of non-zero basis functions:       93 in task   123
  | Maximal number of non-zero basis functions:       91 in task   124
  | Maximal number of non-zero basis functions:       93 in task   125
  | Maximal number of non-zero basis functions:       89 in task   126
  | Maximal number of non-zero basis functions:       88 in task   127
  Allocating        0.066 MB for KS_eigenvector
  Integrating Hamiltonian matrix: batch-based integration.
  Time summed over all CPUs for integration: real work        0.642 s, elapsed        0.718 s
  Integrating overlap matrix.
  Time summed over all CPUs for integration: real work        0.223 s, elapsed        0.264 s
  Deallocating overlap matrix.

  Updating Kohn-Sham eigenvalues and eigenvectors using ELSI and the ELPA eigensolver.
  Overlap matrix is not singular
  | Lowest and highest eigenvalues :  0.1722E-02,  0.1998E+01
  Finished singularity check of overlap matrix
  | Time :     0.022 s
  Starting ELPA eigensolver
  Finished Cholesky decomposition
  | Time :     0.012 s
  Finished transformation to standard eigenproblem
  | Time :     0.001 s
  Finished solving standard eigenproblem
  | Time :     0.042 s
  Finished back-transformation of eigenvectors
  | Time :     0.000 s

  Obtaining occupation numbers and electronic chemical potential using ELSI.
  | Note that, for insulating systems, the printed 'chemical potential' value is not uniquely defined.
  | It can be anywhere in the energy gap, as long as it correctly separates occupied and unoccupied states.
  | In systems with a gap, the physically relevant chemical potential is the VBM or HOMO.

  | Chemical potential (Fermi level):    -6.87417975 eV
  Writing Kohn-Sham eigenvalues.

  State    Occupation    Eigenvalue [Ha]    Eigenvalue [eV]
      1       2.00000         -18.994089         -516.85546
      2       2.00000          -3.929697         -106.93250
      3       2.00000          -1.023267          -27.84450
      4       2.00000          -0.485923          -13.22264
      5       2.00000          -0.442282          -12.03509
      6       2.00000          -0.442282          -12.03509
      7       0.00000          -0.172690           -4.69913
      8       0.00000          -0.048238           -1.31263
      9       0.00000          -0.048238           -1.31263
     10       0.00000           0.008304            0.22597
     11       0.00000           0.059609            1.62205
     12       0.00000           0.080130            2.18044
     13       0.00000           0.080130            2.18044
     14       0.00000           0.148127            4.03073
     15       0.00000           0.148127            4.03073
     16       0.00000           0.150514            4.09569
     17       0.00000           0.184750            5.02731
     18       0.00000           0.184750            5.02731
     19       0.00000           0.223404            6.07913
     20       0.00000           0.332982            9.06090
     21       0.00000           0.336871            9.16673
     22       0.00000           0.336871            9.16673
[...]
  Start contour deformation for level:     16    
 ------------------------------------------------------------
  Step:    1
  Step:    2
  Step:    3
  Step:    4
  Step:    5
  Step:    6
  Step:    7
  Step:    8
  Step:    9
  Step:   10
  Step:   11
  Step:   12
  Step:   13
  Step:   14

 ------------------------------------------------------------
  Start contour deformation for level:     17    
 ------------------------------------------------------------
  Step:    1
  Step:    2
  Step:    3
  Step:    4
  Step:    5
  Step:    6
  Step:    7
  Step:    8
  Step:    9
  Step:   10
  Step:   11

----------------------------------------------------------------------------------------
    GW quasi-particle energy levels

               Start contour deformation at level:      1
               End contour deformation at level:       17

               e_qp = e_gs + e_x^ex - e_xc^gs + e_c^nloc

  state     occ_num        e_gs        e_x^ex        e_xc^gs        e_c^nloc        e_qp
----------------------------------------------------------------------------------------
----------------------------------------------------------------------------------------
       1    2.0000     -520.4440      -99.4989      -63.0576 *** no convergence (see below) ***
       2    2.0000     -111.3702      -46.5315      -30.0537        7.9630     -119.8850
       3    2.0000      -23.6479      -25.0237      -16.7547        5.9767      -25.9402
       4    2.0000       -8.3192      -19.1154      -14.5781        2.4841      -10.3724
       5    2.0000       -7.3602      -16.6219      -12.9522        1.3839       -9.6460
       6    2.0000       -7.3602      -16.6219      -12.9522        1.3839       -9.6460
       7    0.0000       -3.9899       -1.5292       -4.3343       -0.9760       -2.1608
       8    0.0000        0.1533       -1.8983       -4.0757       -0.5144        1.8163
       9    0.0000        0.1533       -1.8983       -4.0757       -0.5144        1.8163
      10    0.0000        1.4655       -0.4617       -1.7980       -0.3632        2.4386
      11    0.0000        1.8660       -0.3309       -1.9772       -0.5088        3.0034
      12    0.0000        3.3880       -0.8237       -3.0491       -0.8417        4.7717
      13    0.0000        3.3880       -0.8237       -3.0491       -0.8417        4.7717
      14    0.0000        5.0745       -0.3455       -2.4291       -0.4607        6.6974
      15    0.0000        5.0745       -0.3455       -2.4291       -0.4607        6.6974
      16    0.0000        5.4957       -0.7005       -2.5804       -0.4066        6.9690
      17    0.0000        6.3773       -1.2682       -3.6165       -0.8452        7.8804
      18    0.0000        6.3773       -1.2682       -3.6165       -0.8190        7.9067
      19    0.0000        8.4238       -1.3873       -3.9211       -0.9072       10.0504
      20    0.0000       11.9252       -1.0850       -3.8782       -0.9492       13.7692
      21    0.0000       12.2964       -1.3535       -4.3355       -1.0991       14.1793
      22    0.0000       12.2964       -1.3535       -4.3355       -1.0958       14.1826
      23    0.0000       14.0433       -0.9660       -4.2215       -1.2789       16.0200
      24    0.0000       15.9427       -1.3100       -5.5734       -1.4073       18.7988
      25    0.0000       15.9427       -1.3100       -5.5734       -1.3207       18.8854
      26    0.0000       19.6986       -3.1816       -8.3576       -2.2359       22.6387
      27    0.0000       24.5385       -1.0905       -5.0023       -1.4394       27.0110
      28    0.0000       24.5385       -1.0905       -5.0023       -1.4375       27.0128
      29    0.0000       24.6879       -1.4088       -6.1975       -1.9761       27.5005
      30    0.0000       24.6880       -1.4088       -6.1975       -1.8183       27.6583
      31    0.0000       25.8196       -0.9304       -5.0076       -1.3999       28.4969
      32    0.0000       25.8196       -0.9303       -5.0076       -1.2807       28.6161
      33    0.0000       27.1360       -1.9264       -6.1474       -1.7124       29.6445
      34    0.0000       27.4962       -0.3971       -4.4639       -1.0939       30.4691
      35    0.0000       27.4962       -0.3971       -4.4639       -1.1528       30.4103
      36    0.0000       30.6710       -1.4180       -5.4288       -1.6940       32.9878
      37    0.0000       33.0792       -1.6823       -6.4199       -1.5139       36.3029
      38    0.0000       33.0792       -1.6823       -6.4199       -1.5405       36.2763
      39    0.0000       37.8939       -2.8028       -8.5167       -2.7443       40.8634
      40    0.0000       39.2960       -1.6986       -7.2223       -1.8075       43.0121
      41    0.0000       39.2960       -1.6986       -7.2223       -1.7921       43.0276
      42    0.0000       41.9872       -3.0606       -9.7971       -4.1374       44.5864
      43    0.0000       41.9872       -3.0606       -9.7971       -4.1521       44.5716
      44    0.0000       46.9461       -3.3079      -10.5604       -3.2975       50.9011
      45    0.0000       52.0099       -1.6448       -7.8371       -1.6896       56.5126
      46    0.0000       52.0099       -1.6448       -7.8371       -1.7016       56.5006
      47    0.0000       63.0575       -2.3899       -9.5626       -2.0299       68.2002
      48    0.0000       74.2281       -3.4571      -11.1431       -2.0893       79.8248
      49    0.0000       88.0557       -1.9232      -10.5780       -2.2702       94.4403
      50    0.0000       88.0557       -1.9232      -10.5780       -2.2523       94.4583
      51    0.0000       92.3508       -2.2718      -11.2101       -2.7593       98.5297
      52    0.0000       92.3508       -2.2718      -11.2100       -2.7446       98.5444
      53    0.0000       95.1904       -4.5891      -14.0485       -3.7755      100.8744
      54    0.0000       95.7662       -2.9908      -12.4348       -3.4383      101.7720
      55    0.0000       95.7662       -2.9908      -12.4348       -3.4693      101.7410
      56    0.0000      109.0260       -3.6207      -13.9892       -5.2326      114.1620
      57    0.0000      109.0260       -3.6207      -13.9892       -5.2876      114.1070
      58    0.0000      110.9751       -4.2298      -14.7223       -4.0625      117.4050
      59    0.0000      117.5995       -3.2498      -13.5937       -4.9638      122.9797
      60    0.0000      117.5995       -3.2498      -13.5937       -5.2160      122.7274
      61    0.0000      127.8094       -3.1151      -13.6863       -3.3476      135.0329
      62    0.0000      140.6548       -5.8367      -19.2911       -7.9973      146.1118
      63    0.0000      140.6548       -5.8367      -19.2911       -6.5358      147.5734
      64    0.0000      151.0044       -5.5075      -18.8753       -7.2295      157.1427
      65    0.0000      243.0721       -1.9710      -14.9760       -2.4822      253.5949
      66    0.0000      243.0721       -1.9710      -14.9760       -2.5776      253.4995
      67    0.0000      243.4276       -1.8711      -14.7813       -2.6237      253.7142
      68    0.0000      243.4276       -1.8711      -14.7813       -2.6611      253.6768
      69    0.0000      243.6483       -1.8164      -14.6584       -2.5878      253.9024
      70    0.0000      243.6483       -1.8164      -14.6584       -2.7157      253.7745
      71    0.0000      243.9477       -1.7432      -14.4881       -2.8206      253.8720
      72    0.0000      243.9478       -1.7432      -14.4881       -2.7600      253.9327
      73    0.0000      247.7266       -2.0139      -15.1344       -2.6658      258.1813
      74    0.0000      287.7509       -6.8436      -24.2205       -3.6387      301.4892
      75    0.0000      287.7509       -6.8436      -24.2205       -3.6477      301.4802
      76    0.0000      300.5274       -2.5631      -17.6337       -5.9192      309.6788
      77    0.0000      300.5274       -2.5631      -17.6337       -5.8418      309.7562
      78    0.0000      303.5540       -2.6157      -17.7643       -4.9050      313.7976
      79    0.0000      303.5541       -2.6157      -17.7643       -5.7744      312.9283
      80    0.0000      311.0581       -3.5304      -19.1253       -4.2666      322.3864
      81    0.0000      311.1905       -3.3539      -19.0109       -5.7879      321.0597
      82    0.0000      311.1905       -3.3539      -19.0109       -6.2756      320.5720
      83    0.0000      312.7605       -6.1186      -22.3192       -2.9713      325.9897
      84    0.0000      329.7763       -3.2047      -19.3747       -8.7138      337.2325
      85    0.0000      329.7781       -3.2047      -19.3747       -6.6215      339.3266
      86    0.0000      336.4482       -3.2689      -19.4617       -6.4837      346.1574
      87    0.0000      336.4482       -3.2689      -19.4617       -6.7959      345.8452
      88    0.0000      338.9455       -7.3172      -24.6708       -3.2840      353.0150
      89    0.0000      339.9488       -3.2320      -19.4340       -4.5717      351.5791
      90    0.0000      369.0613       -7.2697      -24.4637       -4.5050      381.7503
      91    0.0000     1293.6723      -13.7202      -47.0140       -2.3662     1324.5999
      92    0.0000     1741.4984       -7.2344      -46.3996       -3.9270     1776.7367
      93    0.0000     6873.6680      -15.6097      -94.6353       -1.0231     6951.6705
----------------------------------------------------------------------------------------

   DFT/Hartree-Fock HOMO level (eV):    -7.3602   -7.3602

   Quasiparticle HOMO level (eV):       -9.6460   -9.6460
----------------------------------------------------------------------------------------

  Printing out the self-energy matrix element:  6 for spin  1

------------------------------------------------------------------------------------------------------

  Start calculating the spectral function for state:  6

------------------------------------------------------------------------------------------------------

          | Total time for transforming the 3-center integrals :        0.138 s
          | Total time for calculating the exchange-correlation
                                  energy matrix elements   :        0.004 s
          | Total time for calculating polarisability     
                        for imaginary frequencies          :        3.406 s
          | Total time for calculating self energy 
                        on imaginary frequency axis        :       30.616 s
          | Total time for calculating the quasiparticle 
                  energies with analytic continuation      :        0.013 s
          | Total time for calculating the quasiparticle 
                  energies with contour deformation        :       69.511 s

------------------------------------------------------------------------------
  Final output of selected total energy values:

  The following output summarizes some interesting total energy values
  at the end of a run (AFTER all relaxation, molecular dynamics, etc.).

  | Total energy of the DFT / Hartree-Fock s.c.f. calculation      :          -2444.319383860 eV
  | Final zero-broadening corrected energy (caution - metals only) :          -2444.319383860 eV
  | For reference only, the value of 1 Hartree used in FHI-aims is :             27.211384500 eV

  Before relying on these values, please be sure to understand exactly which
  total energy value is referred to by a given number. Different objects may
  all carry the same name 'total energy'. Definitions:

  Total energy of the DFT / Hartree-Fock s.c.f. calculation:
  | Note that this energy does not include ANY quantities calculated after the
  | s.c.f. cycle, in particular not ANY RPA, MP2, etc. many-body perturbation terms.

  Final zero-broadening corrected energy:
  | For metallic systems only, a broadening of the occupation numbers at the Fermi
  | level can be extrapolated back to zero broadening by an electron-gas inspired
  | formula. For all systems that are not real metals, this value can be
  | meaningless and should be avoided.

------------------------------------------------------------------------------
  Methods described in the following list of references were used in this FHI-aims run.
  If you publish the results, please make sure to cite these reference if they apply.
  FHI-aims is an academic code, and for our developers (often, Ph.D. students
  and postdocs), scientific credit in the community is essential.
  Thank you for helping us!

  For any use of FHI-aims, please cite:

    Volker Blum, Ralf Gehrke, Felix Hanke, Paula Havu, Ville Havu,
    Xinguo Ren, Karsten Reuter, and Matthias Scheffler
    'Ab initio molecular simulations with numeric atom-centered orbitals'
    Computer Physics Communications 180, 2175-2196 (2009)
    http://doi.org/10.1016/j.cpc.2009.06.022


  For Hartree-Fock, hybrid functionals, or many-body perturbation theory used in your run, please cite:

    Xinguo Ren, Patrick Rinke, Volker Blum, Juergen Wieferink, Alex Tkatchenko,
    Andrea Sanfilippo, Karsten Reuter, and Matthias Scheffler,
    'Resolution-of-identity approach to Hartree-Fock, hybrid density functionals,
    RPA, MP2, and GW with numeric atom-centered orbital basis functions'
    New Journal of Physics 14, 053020 (2012).
    http://doi.org/10.1088/1367-2630/14/5/053020


  The ELSI infrastructure was used in your run to solve the Kohn-Sham electronic structure.
  Please check out http://elsi-interchange.org to learn more.
  If scalability is important for your project, please acknowledge ELSI by citing:

    V. W-z. Yu, F. Corsetti, A. Garcia, W. P. Huhn, M. Jacquelin, W. Jia,
    B. Lange, L. Lin, J. Lu, W. Mi, A. Seifitokaldani, A. Vazquez-Mayagoitia,
    C. Yang, H. Yang, and V. Blum
    'ELSI: A unified software interface for Kohn-Sham electronic structure solvers'
    Computer Physics Communications 222, 267-285 (2018).
    http://doi.org/10.1016/j.cpc.2017.09.007


  For the real-space grid partitioning and parallelization used in this calculation, please cite:

    Ville Havu, Volker Blum, Paula Havu, and Matthias Scheffler,
    'Efficient O(N) integration for all-electron electronic structure calculation'
    'using numerically tabulated basis functions'
    Journal of Computational Physics 228, 8367-8379 (2009).
    http://doi.org/10.1016/j.jcp.2009.08.008

  Of course, there are many other important community references, e.g., those cited in the
  above references. Our list is limited to references that describe implementations in the
  FHI-aims code. The reason is purely practical (length of this list) - please credit others as well.

 * Warning - angular integration grids had to be adjusted for use with RI_method 'V'.
 * Background: You are using an electronic structure method that requires RI_method 'V'
 * for the resolution of identity of the Coulomb operator. (See Ren et al.,
 * New J. Phys 2012 for details.) This method requires three-center integrations
 * to be carried out on FHI-aims' normal angular and radial integration grids.
 * (See FHI-aims CPC Blum et al. 2009, p. 2183 for grid details and references.)
 * One of the angular grids specified in your control.in file was not large
 * enough for the maximal angular momenta of orbital and product basis functions
 * for its species.
 * This can lead to atomic total energy errors which cancel in energy differences.
 * Effective Sep 22, 2014, we have changed the default behavior of the code to
 * simply 'upgrade' the angular grids internally to a safe setting in this case.
 * Please be sure to NOT mix total energies from before and after the change.

------------------------------------------------------------
          Leaving FHI-aims.
          Date     :  20240515, Time     :  123533.210

          Computational steps:
          | Number of self-consistency cycles          :           22
          | Number of SCF (re)initializations          :            1

          Detailed time accounting                     :  max(cpu_time)    wall_clock(cpu1)
          | Total time                                  :      244.244 s         247.541 s
          | Preparation time                            :        0.158 s           0.169 s
          | Boundary condition initalization            :        0.001 s           0.000 s
          | Grid partitioning                           :        0.043 s           0.042 s
          | Preloading free-atom quantities on grid     :        0.015 s           0.015 s
          | Free-atom superposition energy              :        0.002 s           0.002 s
          | Total time for integrations                 :        0.208 s           0.175 s
          | Product basis setup: Total time             :        2.178 s           2.384 s
          | Product basis: | 3-center integrations     :(       1.102 s)  (       1.106 s)
          | Product basis: | 2-center integrations     :(       0.082 s)  (       0.083 s)
          | Product basis: | 2-center linear algebra   :(       0.464 s)  (       0.467 s)
          | Product basis: | 3-center x 2-center       :(       0.393 s)  (       0.579 s)
          | Total time evaluating exchange matrix       :        0.069 s           0.067 s
          | Transforming ovlp_3fn to ovlp_3KS           :        0.138 s           0.140 s
          | Screened Coulomb matrix W_mn(iw)            :       34.380 s          34.583 s
          | Polarisability matrix Pi_PQ(iw)             :        3.406 s           3.406 s
          | Total time for GW calculation               :      237.902 s         240.485 s
          | GW self-energy (analytic cont.)             :       34.649 s          34.863 s
          | Contour def: | Solving qp equations         :       69.511 s          69.781 s
          | Contour def: | GW self-energy               :      202.373 s         202.796 s
          | Contour def: | Scr Coulomb matrix W_mn(w)   :      201.670 s         202.027 s
          | Contour def: | CD-WAC W_mn(w) and Pade      :        0.000 s           0.000 s
          | Contour def: | Scr aux Coulomb mat W_PQ(w)  :      150.802 s         151.013 s
          | Contour def: | Polarisability Pi_PQ(w)      :       78.237 s          78.024 s
          | Contour def: | Printing self-energy CD      :      130.184 s         130.797 s
          | Contour def: | Spectral function CD         :        3.439 s           4.731 s
          | Total time for solution of K.-S. equations  :        0.327 s           0.334 s
          | Total time for density update               :        0.230 s           0.232 s
          | Total time for mixing                       :        2.070 s           1.292 s
          | Total time for Hartree multipole update     :        0.152 s           0.156 s
          | Total time for Hartree multipole sum        :        0.108 s           0.104 s
          | Total time for total energy evaluation      :        0.008 s           0.005 s

          Partial memory accounting:
          | Residual value for overall tracked memory usage across tasks:     0.000000 MB (should be 0.000000 MB)
          | Peak values for overall tracked memory usage:
          |   Minimum:        0.995 MB (on task  69 after allocating gradient_basis_wave)
          |   Maximum:        1.090 MB (on task   0 after allocating gradient_basis_wave)
          |   Average:        1.060 MB
          | Largest tracked array allocation:
          |   Minimum:        0.385 MB (gradient_basis_wave on task  69)
          |   Maximum:        0.426 MB (gradient_basis_wave on task   0)
          |   Average:        0.413 MB
          Note:  These values currently only include a subset of arrays which are explicitly tracked.
          The "true" memory usage will be greater.

          Have a nice day.
------------------------------------------------------------
