------------------------------------------------------------
          Invoking FHI-aims ...

          When using FHI-aims, please cite the following reference:

            Volker Blum, Ralf Gehrke, Felix Hanke, Paula Havu,
            Ville Havu, Xinguo Ren, Karsten Reuter, and Matthias Scheffler,
            'Ab Initio Molecular Simulations with Numeric Atom-Centered Orbitals',
            Computer Physics Communications 180, 2175-2196 (2009)

          In addition, many other developments in FHI-aims are likely important for
          your particular application. A partial list of references is given at the end of
          this file. Thank you for giving credit to the authors of these developments.

          For any questions about FHI-aims, please visit our slack channel at

            https://fhi-aims.slack.com

          and our main development and support site at

            https://aims-git.rz-berlin.mpg.de .

          The latter site, in particular, has a wiki to collect information, as well
          as an issue tracker to log discussions, suggest improvements, and report issues
          or bugs. https://aims-git.rz-berlin.mpg.de is also the main development site
          of the project and all new and updated code versions can be obtained there.
          Please send an email to aims-coordinators@fhi-berlin.mpg.de and we will add
          you to these sites. They are for you and everyone is welcome there.

------------------------------------------------------------



  Date     :  20240515, Time     :  044923.553
  Time zero on CPU 1             :   0.538639000000000E+00  s.
  Internal wall clock time zero  :           484980563.553  s.

  FHI-aims created a unique identifier for this run for later identification
  aims_uuid : B48B3689-C1D3-475D-AE12-0CEE10B0709B

  Build configuration of the current instance of FHI-aims
  -------------------------------------------------------
  FHI-aims version      : 221103.1
  Commit number         : GITDIR-NOTFOUND
  CMake host system     : Linux-4.18.0-372.32.1.el8_6.x86_64
  CMake version         : 3.24.3
  Fortran compiler      : /opt/software/pc2/EB-SW/software/OpenMPI/4.1.4-GCC-12.2.0/bin/mpifort (GNU) version 12.2.0
  Fortran compiler flags: -O3 -ffree-line-length-none -fallow-argument-mismatch -march=znver3 -mprefer-vector-width=256
  C compiler            : /opt/software/pc2/EB-SW/software/GCCcore/12.2.0/bin/gcc (GNU) version 12.2.0
  C compiler flags      : -O3 -DNDEBUG -funroll-loops -march=znver3 -mprefer-vector-width=256
  HIP compiler          :
  HIP compiler flags    :
  HIP GPU arch          :
  Using MPI
  Using ScaLAPACK
  Using LibXC
  Using i-PI
  Using RLSY
  Linking against: /opt/software/pc2/EB-SW/software/ScaLAPACK/2.2.0-gompi-2022b-fb/lib/libscalapack.so
                   /opt/software/pc2/EB-SW/software/OpenBLAS/0.3.21-GCC-12.2.0/lib/libopenblas.so

  Using     1024 parallel tasks.
  Task        0 on host n2cn0187 reporting.
  Task        1 on host n2cn0187 reporting.
  Task        2 on host n2cn0187 reporting.
  Task        3 on host n2cn0187 reporting.
  Task        4 on host n2cn0187 reporting.
  Task        5 on host n2cn0187 reporting.
  Task        6 on host n2cn0187 reporting.
  Task        7 on host n2cn0187 reporting.
  Task        8 on host n2cn0187 reporting.
  Task        9 on host n2cn0187 reporting.
  Task       10 on host n2cn0187 reporting.
  Task       11 on host n2cn0187 reporting.
  Task       12 on host n2cn0187 reporting.
  Task       13 on host n2cn0187 reporting.
  Task       14 on host n2cn0187 reporting.
  Task       15 on host n2cn0187 reporting.
  Task       16 on host n2cn0187 reporting.
  Task       17 on host n2cn0187 reporting.
  Task       18 on host n2cn0187 reporting.
  Task       19 on host n2cn0187 reporting.
  Task       20 on host n2cn0187 reporting.
  Task       21 on host n2cn0187 reporting.
  Task       22 on host n2cn0187 reporting.
  Task       23 on host n2cn0187 reporting.
  Task       24 on host n2cn0187 reporting.
  Task       25 on host n2cn0187 reporting.
  Task       26 on host n2cn0187 reporting.
  Task       27 on host n2cn0187 reporting.
  Task       28 on host n2cn0187 reporting.
  Task       29 on host n2cn0187 reporting.
  Task       30 on host n2cn0187 reporting.
  Task       31 on host n2cn0187 reporting.
  Task       32 on host n2cn0187 reporting.
  Task       33 on host n2cn0187 reporting.
  Task       34 on host n2cn0187 reporting.
  Task       35 on host n2cn0187 reporting.
  Task       36 on host n2cn0187 reporting.
  Task       37 on host n2cn0187 reporting.
  Task       38 on host n2cn0187 reporting.
  Task       39 on host n2cn0187 reporting.
  Task       40 on host n2cn0187 reporting.
  Task       41 on host n2cn0187 reporting.
  Task       42 on host n2cn0187 reporting.
  Task       43 on host n2cn0187 reporting.
  Task       44 on host n2cn0187 reporting.
  Task       45 on host n2cn0187 reporting.
  Task       46 on host n2cn0187 reporting.
  Task       47 on host n2cn0187 reporting.
  Task       48 on host n2cn0187 reporting.
  Task       49 on host n2cn0187 reporting.
  Task       50 on host n2cn0187 reporting.
  Task       51 on host n2cn0187 reporting.
  Task       52 on host n2cn0187 reporting.
  Task       53 on host n2cn0187 reporting.
  Task       54 on host n2cn0187 reporting.
  Task       55 on host n2cn0187 reporting.
  Task       56 on host n2cn0187 reporting.
  Task       57 on host n2cn0187 reporting.
  Task       58 on host n2cn0187 reporting.
  Task       59 on host n2cn0187 reporting.
  Task       60 on host n2cn0187 reporting.
  Task       61 on host n2cn0187 reporting.
  Task       62 on host n2cn0187 reporting.
  Task       63 on host n2cn0187 reporting.
  Task       64 on host n2cn0187 reporting.
  Task       65 on host n2cn0187 reporting.
  Task       66 on host n2cn0187 reporting.
  Task       67 on host n2cn0187 reporting.
  Task       68 on host n2cn0187 reporting.
  Task       69 on host n2cn0187 reporting.
  Task       70 on host n2cn0187 reporting.
  Task       71 on host n2cn0187 reporting.
  Task       72 on host n2cn0187 reporting.
  Task       73 on host n2cn0187 reporting.
  Task       74 on host n2cn0187 reporting.
  Task       75 on host n2cn0187 reporting.
  Task       76 on host n2cn0187 reporting.
  Task       77 on host n2cn0187 reporting.
  Task       78 on host n2cn0187 reporting.
  Task       79 on host n2cn0187 reporting.
  Task       80 on host n2cn0187 reporting.
  Task       81 on host n2cn0187 reporting.
  Task       82 on host n2cn0187 reporting.
  Task       83 on host n2cn0187 reporting.
  Task       84 on host n2cn0187 reporting.
  Task       85 on host n2cn0187 reporting.
  Task       86 on host n2cn0187 reporting.
  Task       87 on host n2cn0187 reporting.
  Task       88 on host n2cn0187 reporting.
  Task       89 on host n2cn0187 reporting.
  Task       90 on host n2cn0187 reporting.
  Task       91 on host n2cn0187 reporting.
  Task       92 on host n2cn0187 reporting.
  Task       93 on host n2cn0187 reporting.
  Task       94 on host n2cn0187 reporting.
  Task       95 on host n2cn0187 reporting.
  Task       96 on host n2cn0187 reporting.
  Task       97 on host n2cn0187 reporting.
  Task       98 on host n2cn0187 reporting.
  Task       99 on host n2cn0187 reporting.
  Task      100 on host n2cn0187 reporting.
  Task      101 on host n2cn0187 reporting.
  Task      102 on host n2cn0187 reporting.
  Task      103 on host n2cn0187 reporting.
  Task      104 on host n2cn0187 reporting.
  Task      105 on host n2cn0187 reporting.
  Task      106 on host n2cn0187 reporting.
  Task      107 on host n2cn0187 reporting.
  Task      108 on host n2cn0187 reporting.
  Task      109 on host n2cn0187 reporting.
  Task      110 on host n2cn0187 reporting.
  Task      111 on host n2cn0187 reporting.
  Task      112 on host n2cn0187 reporting.
  Task      113 on host n2cn0187 reporting.
  Task      114 on host n2cn0187 reporting.
  Task      115 on host n2cn0187 reporting.
  Task      116 on host n2cn0187 reporting.
  Task      117 on host n2cn0187 reporting.
  Task      118 on host n2cn0187 reporting.
  Task      119 on host n2cn0187 reporting.
  Task      120 on host n2cn0187 reporting.
  Task      121 on host n2cn0187 reporting.
  Task      122 on host n2cn0187 reporting.
  Task      123 on host n2cn0187 reporting.
  Task      124 on host n2cn0187 reporting.
  Task      125 on host n2cn0187 reporting.
  Task      126 on host n2cn0187 reporting.
  Task      127 on host n2cn0187 reporting.
  Task      128 on host n2cn0189 reporting.
  Task      129 on host n2cn0189 reporting.
  Task      130 on host n2cn0189 reporting.
  Task      131 on host n2cn0189 reporting.
  Task      132 on host n2cn0189 reporting.
  Task      133 on host n2cn0189 reporting.
  Task      134 on host n2cn0189 reporting.
  Task      135 on host n2cn0189 reporting.
  Task      136 on host n2cn0189 reporting.
  Task      137 on host n2cn0189 reporting.
  Task      138 on host n2cn0189 reporting.
  Task      139 on host n2cn0189 reporting.
  Task      140 on host n2cn0189 reporting.
  Task      141 on host n2cn0189 reporting.
  Task      142 on host n2cn0189 reporting.
  Task      143 on host n2cn0189 reporting.
  Task      144 on host n2cn0189 reporting.
  Task      145 on host n2cn0189 reporting.
  Task      146 on host n2cn0189 reporting.
  Task      147 on host n2cn0189 reporting.
  Task      148 on host n2cn0189 reporting.
  Task      149 on host n2cn0189 reporting.
  Task      150 on host n2cn0189 reporting.
  Task      151 on host n2cn0189 reporting.
  Task      152 on host n2cn0189 reporting.
  Task      153 on host n2cn0189 reporting.
  Task      154 on host n2cn0189 reporting.
  Task      155 on host n2cn0189 reporting.
  Task      156 on host n2cn0189 reporting.
  Task      157 on host n2cn0189 reporting.
  Task      158 on host n2cn0189 reporting.
  Task      159 on host n2cn0189 reporting.
  Task      160 on host n2cn0189 reporting.
  Task      161 on host n2cn0189 reporting.
  Task      162 on host n2cn0189 reporting.
  Task      163 on host n2cn0189 reporting.
  Task      164 on host n2cn0189 reporting.
  Task      165 on host n2cn0189 reporting.
  Task      166 on host n2cn0189 reporting.
  Task      167 on host n2cn0189 reporting.
  Task      168 on host n2cn0189 reporting.
  Task      169 on host n2cn0189 reporting.
  Task      170 on host n2cn0189 reporting.
  Task      171 on host n2cn0189 reporting.
  Task      172 on host n2cn0189 reporting.
  Task      173 on host n2cn0189 reporting.
  Task      174 on host n2cn0189 reporting.
  Task      175 on host n2cn0189 reporting.
  Task      176 on host n2cn0189 reporting.
  Task      177 on host n2cn0189 reporting.
  Task      178 on host n2cn0189 reporting.
  Task      179 on host n2cn0189 reporting.
  Task      180 on host n2cn0189 reporting.
  Task      181 on host n2cn0189 reporting.
  Task      182 on host n2cn0189 reporting.
  Task      183 on host n2cn0189 reporting.
  Task      184 on host n2cn0189 reporting.
  Task      185 on host n2cn0189 reporting.
  Task      186 on host n2cn0189 reporting.
  Task      187 on host n2cn0189 reporting.
  Task      188 on host n2cn0189 reporting.
  Task      189 on host n2cn0189 reporting.
  Task      190 on host n2cn0189 reporting.
  Task      191 on host n2cn0189 reporting.
  Task      192 on host n2cn0189 reporting.
  Task      193 on host n2cn0189 reporting.
  Task      194 on host n2cn0189 reporting.
  Task      195 on host n2cn0189 reporting.
  Task      196 on host n2cn0189 reporting.
  Task      197 on host n2cn0189 reporting.
  Task      198 on host n2cn0189 reporting.
  Task      199 on host n2cn0189 reporting.
  Task      200 on host n2cn0189 reporting.
  Task      201 on host n2cn0189 reporting.
  Task      202 on host n2cn0189 reporting.
  Task      203 on host n2cn0189 reporting.
  Task      204 on host n2cn0189 reporting.
  Task      205 on host n2cn0189 reporting.
  Task      206 on host n2cn0189 reporting.
  Task      207 on host n2cn0189 reporting.
  Task      208 on host n2cn0189 reporting.
  Task      209 on host n2cn0189 reporting.
  Task      210 on host n2cn0189 reporting.
  Task      211 on host n2cn0189 reporting.
  Task      212 on host n2cn0189 reporting.
  Task      213 on host n2cn0189 reporting.
  Task      214 on host n2cn0189 reporting.
  Task      215 on host n2cn0189 reporting.
  Task      216 on host n2cn0189 reporting.
  Task      217 on host n2cn0189 reporting.
  Task      218 on host n2cn0189 reporting.
  Task      219 on host n2cn0189 reporting.
  Task      220 on host n2cn0189 reporting.
  Task      221 on host n2cn0189 reporting.
  Task      222 on host n2cn0189 reporting.
  Task      223 on host n2cn0189 reporting.
  Task      224 on host n2cn0189 reporting.
  Task      225 on host n2cn0189 reporting.
  Task      226 on host n2cn0189 reporting.
  Task      227 on host n2cn0189 reporting.
  Task      228 on host n2cn0189 reporting.
  Task      229 on host n2cn0189 reporting.
  Task      230 on host n2cn0189 reporting.
  Task      231 on host n2cn0189 reporting.
  Task      232 on host n2cn0189 reporting.
  Task      233 on host n2cn0189 reporting.
  Task      234 on host n2cn0189 reporting.
  Task      235 on host n2cn0189 reporting.
  Task      236 on host n2cn0189 reporting.
  Task      237 on host n2cn0189 reporting.
  Task      238 on host n2cn0189 reporting.
  Task      239 on host n2cn0189 reporting.
  Task      240 on host n2cn0189 reporting.
  Task      241 on host n2cn0189 reporting.
  Task      242 on host n2cn0189 reporting.
  Task      243 on host n2cn0189 reporting.
  Task      244 on host n2cn0189 reporting.
  Task      245 on host n2cn0189 reporting.
  Task      246 on host n2cn0189 reporting.
  Task      247 on host n2cn0189 reporting.
  Task      248 on host n2cn0189 reporting.
  Task      249 on host n2cn0189 reporting.
  Task      250 on host n2cn0189 reporting.
  Task      251 on host n2cn0189 reporting.
  Task      252 on host n2cn0189 reporting.
  Task      253 on host n2cn0189 reporting.
  Task      254 on host n2cn0189 reporting.
  Task      255 on host n2cn0189 reporting.
  Task      256 on host n2cn0361.ab2021.local reporting.
  Task      257 on host n2cn0361.ab2021.local reporting.
  Task      258 on host n2cn0361.ab2021.local reporting.
  Task      259 on host n2cn0361.ab2021.local reporting.
  Task      260 on host n2cn0361.ab2021.local reporting.
  Task      261 on host n2cn0361.ab2021.local reporting.
  Task      262 on host n2cn0361.ab2021.local reporting.
  Task      263 on host n2cn0361.ab2021.local reporting.
  Task      264 on host n2cn0361.ab2021.local reporting.
  Task      265 on host n2cn0361.ab2021.local reporting.
  Task      266 on host n2cn0361.ab2021.local reporting.
  Task      267 on host n2cn0361.ab2021.local reporting.
  Task      268 on host n2cn0361.ab2021.local reporting.
  Task      269 on host n2cn0361.ab2021.local reporting.
  Task      270 on host n2cn0361.ab2021.local reporting.
  Task      271 on host n2cn0361.ab2021.local reporting.
  Task      272 on host n2cn0361.ab2021.local reporting.
  Task      273 on host n2cn0361.ab2021.local reporting.
  Task      274 on host n2cn0361.ab2021.local reporting.
  Task      275 on host n2cn0361.ab2021.local reporting.
  Task      276 on host n2cn0361.ab2021.local reporting.
  Task      277 on host n2cn0361.ab2021.local reporting.
  Task      278 on host n2cn0361.ab2021.local reporting.
  Task      279 on host n2cn0361.ab2021.local reporting.
  Task      280 on host n2cn0361.ab2021.local reporting.
  Task      281 on host n2cn0361.ab2021.local reporting.
  Task      282 on host n2cn0361.ab2021.local reporting.
  Task      283 on host n2cn0361.ab2021.local reporting.
  Task      284 on host n2cn0361.ab2021.local reporting.
  Task      285 on host n2cn0361.ab2021.local reporting.
  Task      286 on host n2cn0361.ab2021.local reporting.
  Task      287 on host n2cn0361.ab2021.local reporting.
  Task      288 on host n2cn0361.ab2021.local reporting.
  Task      289 on host n2cn0361.ab2021.local reporting.
  Task      290 on host n2cn0361.ab2021.local reporting.
  Task      291 on host n2cn0361.ab2021.local reporting.
  Task      292 on host n2cn0361.ab2021.local reporting.
  Task      293 on host n2cn0361.ab2021.local reporting.
  Task      294 on host n2cn0361.ab2021.local reporting.
  Task      295 on host n2cn0361.ab2021.local reporting.
  Task      296 on host n2cn0361.ab2021.local reporting.
  Task      297 on host n2cn0361.ab2021.local reporting.
  Task      298 on host n2cn0361.ab2021.local reporting.
  Task      299 on host n2cn0361.ab2021.local reporting.
  Task      300 on host n2cn0361.ab2021.local reporting.
  Task      301 on host n2cn0361.ab2021.local reporting.
  Task      302 on host n2cn0361.ab2021.local reporting.
  Task      303 on host n2cn0361.ab2021.local reporting.
  Task      304 on host n2cn0361.ab2021.local reporting.
  Task      305 on host n2cn0361.ab2021.local reporting.
  Task      306 on host n2cn0361.ab2021.local reporting.
  Task      307 on host n2cn0361.ab2021.local reporting.
  Task      308 on host n2cn0361.ab2021.local reporting.
  Task      309 on host n2cn0361.ab2021.local reporting.
  Task      310 on host n2cn0361.ab2021.local reporting.
  Task      311 on host n2cn0361.ab2021.local reporting.
  Task      312 on host n2cn0361.ab2021.local reporting.
  Task      313 on host n2cn0361.ab2021.local reporting.
  Task      314 on host n2cn0361.ab2021.local reporting.
  Task      315 on host n2cn0361.ab2021.local reporting.
  Task      316 on host n2cn0361.ab2021.local reporting.
  Task      317 on host n2cn0361.ab2021.local reporting.
  Task      318 on host n2cn0361.ab2021.local reporting.
  Task      319 on host n2cn0361.ab2021.local reporting.
  Task      320 on host n2cn0361.ab2021.local reporting.
  Task      321 on host n2cn0361.ab2021.local reporting.
  Task      322 on host n2cn0361.ab2021.local reporting.
  Task      323 on host n2cn0361.ab2021.local reporting.
  Task      324 on host n2cn0361.ab2021.local reporting.
  Task      325 on host n2cn0361.ab2021.local reporting.
  Task      326 on host n2cn0361.ab2021.local reporting.
  Task      327 on host n2cn0361.ab2021.local reporting.
  Task      328 on host n2cn0361.ab2021.local reporting.
  Task      329 on host n2cn0361.ab2021.local reporting.
  Task      330 on host n2cn0361.ab2021.local reporting.
  Task      331 on host n2cn0361.ab2021.local reporting.
  Task      332 on host n2cn0361.ab2021.local reporting.
  Task      333 on host n2cn0361.ab2021.local reporting.
  Task      334 on host n2cn0361.ab2021.local reporting.
  Task      335 on host n2cn0361.ab2021.local reporting.
  Task      336 on host n2cn0361.ab2021.local reporting.
  Task      337 on host n2cn0361.ab2021.local reporting.
  Task      338 on host n2cn0361.ab2021.local reporting.
  Task      339 on host n2cn0361.ab2021.local reporting.
  Task      340 on host n2cn0361.ab2021.local reporting.
  Task      341 on host n2cn0361.ab2021.local reporting.
  Task      342 on host n2cn0361.ab2021.local reporting.
  Task      343 on host n2cn0361.ab2021.local reporting.
  Task      344 on host n2cn0361.ab2021.local reporting.
  Task      345 on host n2cn0361.ab2021.local reporting.
  Task      346 on host n2cn0361.ab2021.local reporting.
  Task      347 on host n2cn0361.ab2021.local reporting.
  Task      348 on host n2cn0361.ab2021.local reporting.
  Task      349 on host n2cn0361.ab2021.local reporting.
  Task      350 on host n2cn0361.ab2021.local reporting.
  Task      351 on host n2cn0361.ab2021.local reporting.
  Task      352 on host n2cn0361.ab2021.local reporting.
  Task      353 on host n2cn0361.ab2021.local reporting.
  Task      354 on host n2cn0361.ab2021.local reporting.
  Task      355 on host n2cn0361.ab2021.local reporting.
  Task      356 on host n2cn0361.ab2021.local reporting.
  Task      357 on host n2cn0361.ab2021.local reporting.
  Task      358 on host n2cn0361.ab2021.local reporting.
  Task      359 on host n2cn0361.ab2021.local reporting.
  Task      360 on host n2cn0361.ab2021.local reporting.
  Task      361 on host n2cn0361.ab2021.local reporting.
  Task      362 on host n2cn0361.ab2021.local reporting.
  Task      363 on host n2cn0361.ab2021.local reporting.
  Task      364 on host n2cn0361.ab2021.local reporting.
  Task      365 on host n2cn0361.ab2021.local reporting.
  Task      366 on host n2cn0361.ab2021.local reporting.
  Task      367 on host n2cn0361.ab2021.local reporting.
  Task      368 on host n2cn0361.ab2021.local reporting.
  Task      369 on host n2cn0361.ab2021.local reporting.
  Task      370 on host n2cn0361.ab2021.local reporting.
  Task      371 on host n2cn0361.ab2021.local reporting.
  Task      372 on host n2cn0361.ab2021.local reporting.
  Task      373 on host n2cn0361.ab2021.local reporting.
  Task      374 on host n2cn0361.ab2021.local reporting.
  Task      375 on host n2cn0361.ab2021.local reporting.
  Task      376 on host n2cn0361.ab2021.local reporting.
  Task      377 on host n2cn0361.ab2021.local reporting.
  Task      378 on host n2cn0361.ab2021.local reporting.
  Task      379 on host n2cn0361.ab2021.local reporting.
  Task      380 on host n2cn0361.ab2021.local reporting.
  Task      381 on host n2cn0361.ab2021.local reporting.
  Task      382 on host n2cn0361.ab2021.local reporting.
  Task      383 on host n2cn0361.ab2021.local reporting.
  Task      384 on host n2cn0670 reporting.
  Task      385 on host n2cn0670 reporting.
  Task      386 on host n2cn0670 reporting.
  Task      387 on host n2cn0670 reporting.
  Task      388 on host n2cn0670 reporting.
  Task      389 on host n2cn0670 reporting.
  Task      390 on host n2cn0670 reporting.
  Task      391 on host n2cn0670 reporting.
  Task      392 on host n2cn0670 reporting.
  Task      393 on host n2cn0670 reporting.
  Task      394 on host n2cn0670 reporting.
  Task      395 on host n2cn0670 reporting.
  Task      396 on host n2cn0670 reporting.
  Task      397 on host n2cn0670 reporting.
  Task      398 on host n2cn0670 reporting.
  Task      399 on host n2cn0670 reporting.
  Task      400 on host n2cn0670 reporting.
  Task      401 on host n2cn0670 reporting.
  Task      402 on host n2cn0670 reporting.
  Task      403 on host n2cn0670 reporting.
  Task      404 on host n2cn0670 reporting.
  Task      405 on host n2cn0670 reporting.
  Task      406 on host n2cn0670 reporting.
  Task      407 on host n2cn0670 reporting.
  Task      408 on host n2cn0670 reporting.
  Task      409 on host n2cn0670 reporting.
  Task      410 on host n2cn0670 reporting.
  Task      411 on host n2cn0670 reporting.
  Task      412 on host n2cn0670 reporting.
  Task      413 on host n2cn0670 reporting.
  Task      414 on host n2cn0670 reporting.
  Task      415 on host n2cn0670 reporting.
  Task      416 on host n2cn0670 reporting.
  Task      417 on host n2cn0670 reporting.
  Task      418 on host n2cn0670 reporting.
  Task      419 on host n2cn0670 reporting.
  Task      420 on host n2cn0670 reporting.
  Task      421 on host n2cn0670 reporting.
  Task      422 on host n2cn0670 reporting.
  Task      423 on host n2cn0670 reporting.
  Task      424 on host n2cn0670 reporting.
  Task      425 on host n2cn0670 reporting.
  Task      426 on host n2cn0670 reporting.
  Task      427 on host n2cn0670 reporting.
  Task      428 on host n2cn0670 reporting.
  Task      429 on host n2cn0670 reporting.
  Task      430 on host n2cn0670 reporting.
  Task      431 on host n2cn0670 reporting.
  Task      432 on host n2cn0670 reporting.
  Task      433 on host n2cn0670 reporting.
  Task      434 on host n2cn0670 reporting.
  Task      435 on host n2cn0670 reporting.
  Task      436 on host n2cn0670 reporting.
  Task      437 on host n2cn0670 reporting.
  Task      438 on host n2cn0670 reporting.
  Task      439 on host n2cn0670 reporting.
  Task      440 on host n2cn0670 reporting.
  Task      441 on host n2cn0670 reporting.
  Task      442 on host n2cn0670 reporting.
  Task      443 on host n2cn0670 reporting.
  Task      444 on host n2cn0670 reporting.
  Task      445 on host n2cn0670 reporting.
  Task      446 on host n2cn0670 reporting.
  Task      447 on host n2cn0670 reporting.
  Task      448 on host n2cn0670 reporting.
  Task      449 on host n2cn0670 reporting.
  Task      450 on host n2cn0670 reporting.
  Task      451 on host n2cn0670 reporting.
  Task      452 on host n2cn0670 reporting.
  Task      453 on host n2cn0670 reporting.
  Task      454 on host n2cn0670 reporting.
  Task      455 on host n2cn0670 reporting.
  Task      456 on host n2cn0670 reporting.
  Task      457 on host n2cn0670 reporting.
  Task      458 on host n2cn0670 reporting.
  Task      459 on host n2cn0670 reporting.
  Task      460 on host n2cn0670 reporting.
  Task      461 on host n2cn0670 reporting.
  Task      462 on host n2cn0670 reporting.
  Task      463 on host n2cn0670 reporting.
  Task      464 on host n2cn0670 reporting.
  Task      465 on host n2cn0670 reporting.
  Task      466 on host n2cn0670 reporting.
  Task      467 on host n2cn0670 reporting.
  Task      468 on host n2cn0670 reporting.
  Task      469 on host n2cn0670 reporting.
  Task      470 on host n2cn0670 reporting.
  Task      471 on host n2cn0670 reporting.
  Task      472 on host n2cn0670 reporting.
  Task      473 on host n2cn0670 reporting.
  Task      474 on host n2cn0670 reporting.
  Task      475 on host n2cn0670 reporting.
  Task      476 on host n2cn0670 reporting.
  Task      477 on host n2cn0670 reporting.
  Task      478 on host n2cn0670 reporting.
  Task      479 on host n2cn0670 reporting.
  Task      480 on host n2cn0670 reporting.
  Task      481 on host n2cn0670 reporting.
  Task      482 on host n2cn0670 reporting.
  Task      483 on host n2cn0670 reporting.
  Task      484 on host n2cn0670 reporting.
  Task      485 on host n2cn0670 reporting.
  Task      486 on host n2cn0670 reporting.
  Task      487 on host n2cn0670 reporting.
  Task      488 on host n2cn0670 reporting.
  Task      489 on host n2cn0670 reporting.
  Task      490 on host n2cn0670 reporting.
  Task      491 on host n2cn0670 reporting.
  Task      492 on host n2cn0670 reporting.
  Task      493 on host n2cn0670 reporting.
  Task      494 on host n2cn0670 reporting.
  Task      495 on host n2cn0670 reporting.
  Task      496 on host n2cn0670 reporting.
  Task      497 on host n2cn0670 reporting.
  Task      498 on host n2cn0670 reporting.
  Task      499 on host n2cn0670 reporting.
  Task      500 on host n2cn0670 reporting.
  Task      501 on host n2cn0670 reporting.
  Task      502 on host n2cn0670 reporting.
  Task      503 on host n2cn0670 reporting.
  Task      504 on host n2cn0670 reporting.
  Task      505 on host n2cn0670 reporting.
  Task      506 on host n2cn0670 reporting.
  Task      507 on host n2cn0670 reporting.
  Task      508 on host n2cn0670 reporting.
  Task      509 on host n2cn0670 reporting.
  Task      510 on host n2cn0670 reporting.
  Task      511 on host n2cn0670 reporting.
  Task      512 on host n2cn0688 reporting.
  Task      513 on host n2cn0688 reporting.
  Task      514 on host n2cn0688 reporting.
  Task      515 on host n2cn0688 reporting.
  Task      516 on host n2cn0688 reporting.
  Task      517 on host n2cn0688 reporting.
  Task      518 on host n2cn0688 reporting.
  Task      519 on host n2cn0688 reporting.
  Task      520 on host n2cn0688 reporting.
  Task      521 on host n2cn0688 reporting.
  Task      522 on host n2cn0688 reporting.
  Task      523 on host n2cn0688 reporting.
  Task      524 on host n2cn0688 reporting.
  Task      525 on host n2cn0688 reporting.
  Task      526 on host n2cn0688 reporting.
  Task      527 on host n2cn0688 reporting.
  Task      528 on host n2cn0688 reporting.
  Task      529 on host n2cn0688 reporting.
  Task      530 on host n2cn0688 reporting.
  Task      531 on host n2cn0688 reporting.
  Task      532 on host n2cn0688 reporting.
  Task      533 on host n2cn0688 reporting.
  Task      534 on host n2cn0688 reporting.
  Task      535 on host n2cn0688 reporting.
  Task      536 on host n2cn0688 reporting.
  Task      537 on host n2cn0688 reporting.
  Task      538 on host n2cn0688 reporting.
  Task      539 on host n2cn0688 reporting.
  Task      540 on host n2cn0688 reporting.
  Task      541 on host n2cn0688 reporting.
  Task      542 on host n2cn0688 reporting.
  Task      543 on host n2cn0688 reporting.
  Task      544 on host n2cn0688 reporting.
  Task      545 on host n2cn0688 reporting.
  Task      546 on host n2cn0688 reporting.
  Task      547 on host n2cn0688 reporting.
  Task      548 on host n2cn0688 reporting.
  Task      549 on host n2cn0688 reporting.
  Task      550 on host n2cn0688 reporting.
  Task      551 on host n2cn0688 reporting.
  Task      552 on host n2cn0688 reporting.
  Task      553 on host n2cn0688 reporting.
  Task      554 on host n2cn0688 reporting.
  Task      555 on host n2cn0688 reporting.
  Task      556 on host n2cn0688 reporting.
  Task      557 on host n2cn0688 reporting.
  Task      558 on host n2cn0688 reporting.
  Task      559 on host n2cn0688 reporting.
  Task      560 on host n2cn0688 reporting.
  Task      561 on host n2cn0688 reporting.
  Task      562 on host n2cn0688 reporting.
  Task      563 on host n2cn0688 reporting.
  Task      564 on host n2cn0688 reporting.
  Task      565 on host n2cn0688 reporting.
  Task      566 on host n2cn0688 reporting.
  Task      567 on host n2cn0688 reporting.
  Task      568 on host n2cn0688 reporting.
  Task      569 on host n2cn0688 reporting.
  Task      570 on host n2cn0688 reporting.
  Task      571 on host n2cn0688 reporting.
  Task      572 on host n2cn0688 reporting.
  Task      573 on host n2cn0688 reporting.
  Task      574 on host n2cn0688 reporting.
  Task      575 on host n2cn0688 reporting.
  Task      576 on host n2cn0688 reporting.
  Task      577 on host n2cn0688 reporting.
  Task      578 on host n2cn0688 reporting.
  Task      579 on host n2cn0688 reporting.
  Task      580 on host n2cn0688 reporting.
  Task      581 on host n2cn0688 reporting.
  Task      582 on host n2cn0688 reporting.
  Task      583 on host n2cn0688 reporting.
  Task      584 on host n2cn0688 reporting.
  Task      585 on host n2cn0688 reporting.
  Task      586 on host n2cn0688 reporting.
  Task      587 on host n2cn0688 reporting.
  Task      588 on host n2cn0688 reporting.
  Task      589 on host n2cn0688 reporting.
  Task      590 on host n2cn0688 reporting.
  Task      591 on host n2cn0688 reporting.
  Task      592 on host n2cn0688 reporting.
  Task      593 on host n2cn0688 reporting.
  Task      594 on host n2cn0688 reporting.
  Task      595 on host n2cn0688 reporting.
  Task      596 on host n2cn0688 reporting.
  Task      597 on host n2cn0688 reporting.
  Task      598 on host n2cn0688 reporting.
  Task      599 on host n2cn0688 reporting.
  Task      600 on host n2cn0688 reporting.
  Task      601 on host n2cn0688 reporting.
  Task      602 on host n2cn0688 reporting.
  Task      603 on host n2cn0688 reporting.
  Task      604 on host n2cn0688 reporting.
  Task      605 on host n2cn0688 reporting.
  Task      606 on host n2cn0688 reporting.
  Task      607 on host n2cn0688 reporting.
  Task      608 on host n2cn0688 reporting.
  Task      609 on host n2cn0688 reporting.
  Task      610 on host n2cn0688 reporting.
  Task      611 on host n2cn0688 reporting.
  Task      612 on host n2cn0688 reporting.
  Task      613 on host n2cn0688 reporting.
  Task      614 on host n2cn0688 reporting.
  Task      615 on host n2cn0688 reporting.
  Task      616 on host n2cn0688 reporting.
  Task      617 on host n2cn0688 reporting.
  Task      618 on host n2cn0688 reporting.
  Task      619 on host n2cn0688 reporting.
  Task      620 on host n2cn0688 reporting.
  Task      621 on host n2cn0688 reporting.
  Task      622 on host n2cn0688 reporting.
  Task      623 on host n2cn0688 reporting.
  Task      624 on host n2cn0688 reporting.
  Task      625 on host n2cn0688 reporting.
  Task      626 on host n2cn0688 reporting.
  Task      627 on host n2cn0688 reporting.
  Task      628 on host n2cn0688 reporting.
  Task      629 on host n2cn0688 reporting.
  Task      630 on host n2cn0688 reporting.
  Task      631 on host n2cn0688 reporting.
  Task      632 on host n2cn0688 reporting.
  Task      633 on host n2cn0688 reporting.
  Task      634 on host n2cn0688 reporting.
  Task      635 on host n2cn0688 reporting.
  Task      636 on host n2cn0688 reporting.
  Task      637 on host n2cn0688 reporting.
  Task      638 on host n2cn0688 reporting.
  Task      639 on host n2cn0688 reporting.
  Task      640 on host n2cn1026.ab2021.local reporting.
  Task      641 on host n2cn1026.ab2021.local reporting.
  Task      642 on host n2cn1026.ab2021.local reporting.
  Task      643 on host n2cn1026.ab2021.local reporting.
  Task      644 on host n2cn1026.ab2021.local reporting.
  Task      645 on host n2cn1026.ab2021.local reporting.
  Task      646 on host n2cn1026.ab2021.local reporting.
  Task      647 on host n2cn1026.ab2021.local reporting.
  Task      648 on host n2cn1026.ab2021.local reporting.
  Task      649 on host n2cn1026.ab2021.local reporting.
  Task      650 on host n2cn1026.ab2021.local reporting.
  Task      651 on host n2cn1026.ab2021.local reporting.
  Task      652 on host n2cn1026.ab2021.local reporting.
  Task      653 on host n2cn1026.ab2021.local reporting.
  Task      654 on host n2cn1026.ab2021.local reporting.
  Task      655 on host n2cn1026.ab2021.local reporting.
  Task      656 on host n2cn1026.ab2021.local reporting.
  Task      657 on host n2cn1026.ab2021.local reporting.
  Task      658 on host n2cn1026.ab2021.local reporting.
  Task      659 on host n2cn1026.ab2021.local reporting.
  Task      660 on host n2cn1026.ab2021.local reporting.
  Task      661 on host n2cn1026.ab2021.local reporting.
  Task      662 on host n2cn1026.ab2021.local reporting.
  Task      663 on host n2cn1026.ab2021.local reporting.
  Task      664 on host n2cn1026.ab2021.local reporting.
  Task      665 on host n2cn1026.ab2021.local reporting.
  Task      666 on host n2cn1026.ab2021.local reporting.
  Task      667 on host n2cn1026.ab2021.local reporting.
  Task      668 on host n2cn1026.ab2021.local reporting.
  Task      669 on host n2cn1026.ab2021.local reporting.
  Task      670 on host n2cn1026.ab2021.local reporting.
  Task      671 on host n2cn1026.ab2021.local reporting.
  Task      672 on host n2cn1026.ab2021.local reporting.
  Task      673 on host n2cn1026.ab2021.local reporting.
  Task      674 on host n2cn1026.ab2021.local reporting.
  Task      675 on host n2cn1026.ab2021.local reporting.
  Task      676 on host n2cn1026.ab2021.local reporting.
  Task      677 on host n2cn1026.ab2021.local reporting.
  Task      678 on host n2cn1026.ab2021.local reporting.
  Task      679 on host n2cn1026.ab2021.local reporting.
  Task      680 on host n2cn1026.ab2021.local reporting.
  Task      681 on host n2cn1026.ab2021.local reporting.
  Task      682 on host n2cn1026.ab2021.local reporting.
  Task      683 on host n2cn1026.ab2021.local reporting.
  Task      684 on host n2cn1026.ab2021.local reporting.
  Task      685 on host n2cn1026.ab2021.local reporting.
  Task      686 on host n2cn1026.ab2021.local reporting.
  Task      687 on host n2cn1026.ab2021.local reporting.
  Task      688 on host n2cn1026.ab2021.local reporting.
  Task      689 on host n2cn1026.ab2021.local reporting.
  Task      690 on host n2cn1026.ab2021.local reporting.
  Task      691 on host n2cn1026.ab2021.local reporting.
  Task      692 on host n2cn1026.ab2021.local reporting.
  Task      693 on host n2cn1026.ab2021.local reporting.
  Task      694 on host n2cn1026.ab2021.local reporting.
  Task      695 on host n2cn1026.ab2021.local reporting.
  Task      696 on host n2cn1026.ab2021.local reporting.
  Task      697 on host n2cn1026.ab2021.local reporting.
  Task      698 on host n2cn1026.ab2021.local reporting.
  Task      699 on host n2cn1026.ab2021.local reporting.
  Task      700 on host n2cn1026.ab2021.local reporting.
  Task      701 on host n2cn1026.ab2021.local reporting.
  Task      702 on host n2cn1026.ab2021.local reporting.
  Task      703 on host n2cn1026.ab2021.local reporting.
  Task      704 on host n2cn1026.ab2021.local reporting.
  Task      705 on host n2cn1026.ab2021.local reporting.
  Task      706 on host n2cn1026.ab2021.local reporting.
  Task      707 on host n2cn1026.ab2021.local reporting.
  Task      708 on host n2cn1026.ab2021.local reporting.
  Task      709 on host n2cn1026.ab2021.local reporting.
  Task      710 on host n2cn1026.ab2021.local reporting.
  Task      711 on host n2cn1026.ab2021.local reporting.
  Task      712 on host n2cn1026.ab2021.local reporting.
  Task      713 on host n2cn1026.ab2021.local reporting.
  Task      714 on host n2cn1026.ab2021.local reporting.
  Task      715 on host n2cn1026.ab2021.local reporting.
  Task      716 on host n2cn1026.ab2021.local reporting.
  Task      717 on host n2cn1026.ab2021.local reporting.
  Task      718 on host n2cn1026.ab2021.local reporting.
  Task      719 on host n2cn1026.ab2021.local reporting.
  Task      720 on host n2cn1026.ab2021.local reporting.
  Task      721 on host n2cn1026.ab2021.local reporting.
  Task      722 on host n2cn1026.ab2021.local reporting.
  Task      723 on host n2cn1026.ab2021.local reporting.
  Task      724 on host n2cn1026.ab2021.local reporting.
  Task      725 on host n2cn1026.ab2021.local reporting.
  Task      726 on host n2cn1026.ab2021.local reporting.
  Task      727 on host n2cn1026.ab2021.local reporting.
  Task      728 on host n2cn1026.ab2021.local reporting.
  Task      729 on host n2cn1026.ab2021.local reporting.
  Task      730 on host n2cn1026.ab2021.local reporting.
  Task      731 on host n2cn1026.ab2021.local reporting.
  Task      732 on host n2cn1026.ab2021.local reporting.
  Task      733 on host n2cn1026.ab2021.local reporting.
  Task      734 on host n2cn1026.ab2021.local reporting.
  Task      735 on host n2cn1026.ab2021.local reporting.
  Task      736 on host n2cn1026.ab2021.local reporting.
  Task      737 on host n2cn1026.ab2021.local reporting.
  Task      738 on host n2cn1026.ab2021.local reporting.
  Task      739 on host n2cn1026.ab2021.local reporting.
  Task      740 on host n2cn1026.ab2021.local reporting.
  Task      741 on host n2cn1026.ab2021.local reporting.
  Task      742 on host n2cn1026.ab2021.local reporting.
  Task      743 on host n2cn1026.ab2021.local reporting.
  Task      744 on host n2cn1026.ab2021.local reporting.
  Task      745 on host n2cn1026.ab2021.local reporting.
  Task      746 on host n2cn1026.ab2021.local reporting.
  Task      747 on host n2cn1026.ab2021.local reporting.
  Task      748 on host n2cn1026.ab2021.local reporting.
  Task      749 on host n2cn1026.ab2021.local reporting.
  Task      750 on host n2cn1026.ab2021.local reporting.
  Task      751 on host n2cn1026.ab2021.local reporting.
  Task      752 on host n2cn1026.ab2021.local reporting.
  Task      753 on host n2cn1026.ab2021.local reporting.
  Task      754 on host n2cn1026.ab2021.local reporting.
  Task      755 on host n2cn1026.ab2021.local reporting.
  Task      756 on host n2cn1026.ab2021.local reporting.
  Task      757 on host n2cn1026.ab2021.local reporting.
  Task      758 on host n2cn1026.ab2021.local reporting.
  Task      759 on host n2cn1026.ab2021.local reporting.
  Task      760 on host n2cn1026.ab2021.local reporting.
  Task      761 on host n2cn1026.ab2021.local reporting.
  Task      762 on host n2cn1026.ab2021.local reporting.
  Task      763 on host n2cn1026.ab2021.local reporting.
  Task      764 on host n2cn1026.ab2021.local reporting.
  Task      765 on host n2cn1026.ab2021.local reporting.
  Task      766 on host n2cn1026.ab2021.local reporting.
  Task      767 on host n2cn1026.ab2021.local reporting.
  Task      768 on host n2cn1027.ab2021.local reporting.
  Task      769 on host n2cn1027.ab2021.local reporting.
  Task      770 on host n2cn1027.ab2021.local reporting.
  Task      771 on host n2cn1027.ab2021.local reporting.
  Task      772 on host n2cn1027.ab2021.local reporting.
  Task      773 on host n2cn1027.ab2021.local reporting.
  Task      774 on host n2cn1027.ab2021.local reporting.
  Task      775 on host n2cn1027.ab2021.local reporting.
  Task      776 on host n2cn1027.ab2021.local reporting.
  Task      777 on host n2cn1027.ab2021.local reporting.
  Task      778 on host n2cn1027.ab2021.local reporting.
  Task      779 on host n2cn1027.ab2021.local reporting.
  Task      780 on host n2cn1027.ab2021.local reporting.
  Task      781 on host n2cn1027.ab2021.local reporting.
  Task      782 on host n2cn1027.ab2021.local reporting.
  Task      783 on host n2cn1027.ab2021.local reporting.
  Task      784 on host n2cn1027.ab2021.local reporting.
  Task      785 on host n2cn1027.ab2021.local reporting.
  Task      786 on host n2cn1027.ab2021.local reporting.
  Task      787 on host n2cn1027.ab2021.local reporting.
  Task      788 on host n2cn1027.ab2021.local reporting.
  Task      789 on host n2cn1027.ab2021.local reporting.
  Task      790 on host n2cn1027.ab2021.local reporting.
  Task      791 on host n2cn1027.ab2021.local reporting.
  Task      792 on host n2cn1027.ab2021.local reporting.
  Task      793 on host n2cn1027.ab2021.local reporting.
  Task      794 on host n2cn1027.ab2021.local reporting.
  Task      795 on host n2cn1027.ab2021.local reporting.
  Task      796 on host n2cn1027.ab2021.local reporting.
  Task      797 on host n2cn1027.ab2021.local reporting.
  Task      798 on host n2cn1027.ab2021.local reporting.
  Task      799 on host n2cn1027.ab2021.local reporting.
  Task      800 on host n2cn1027.ab2021.local reporting.
  Task      801 on host n2cn1027.ab2021.local reporting.
  Task      802 on host n2cn1027.ab2021.local reporting.
  Task      803 on host n2cn1027.ab2021.local reporting.
  Task      804 on host n2cn1027.ab2021.local reporting.
  Task      805 on host n2cn1027.ab2021.local reporting.
  Task      806 on host n2cn1027.ab2021.local reporting.
  Task      807 on host n2cn1027.ab2021.local reporting.
  Task      808 on host n2cn1027.ab2021.local reporting.
  Task      809 on host n2cn1027.ab2021.local reporting.
  Task      810 on host n2cn1027.ab2021.local reporting.
  Task      811 on host n2cn1027.ab2021.local reporting.
  Task      812 on host n2cn1027.ab2021.local reporting.
  Task      813 on host n2cn1027.ab2021.local reporting.
  Task      814 on host n2cn1027.ab2021.local reporting.
  Task      815 on host n2cn1027.ab2021.local reporting.
  Task      816 on host n2cn1027.ab2021.local reporting.
  Task      817 on host n2cn1027.ab2021.local reporting.
  Task      818 on host n2cn1027.ab2021.local reporting.
  Task      819 on host n2cn1027.ab2021.local reporting.
  Task      820 on host n2cn1027.ab2021.local reporting.
  Task      821 on host n2cn1027.ab2021.local reporting.
  Task      822 on host n2cn1027.ab2021.local reporting.
  Task      823 on host n2cn1027.ab2021.local reporting.
  Task      824 on host n2cn1027.ab2021.local reporting.
  Task      825 on host n2cn1027.ab2021.local reporting.
  Task      826 on host n2cn1027.ab2021.local reporting.
  Task      827 on host n2cn1027.ab2021.local reporting.
  Task      828 on host n2cn1027.ab2021.local reporting.
  Task      829 on host n2cn1027.ab2021.local reporting.
  Task      830 on host n2cn1027.ab2021.local reporting.
  Task      831 on host n2cn1027.ab2021.local reporting.
  Task      832 on host n2cn1027.ab2021.local reporting.
  Task      833 on host n2cn1027.ab2021.local reporting.
  Task      834 on host n2cn1027.ab2021.local reporting.
  Task      835 on host n2cn1027.ab2021.local reporting.
  Task      836 on host n2cn1027.ab2021.local reporting.
  Task      837 on host n2cn1027.ab2021.local reporting.
  Task      838 on host n2cn1027.ab2021.local reporting.
  Task      839 on host n2cn1027.ab2021.local reporting.
  Task      840 on host n2cn1027.ab2021.local reporting.
  Task      841 on host n2cn1027.ab2021.local reporting.
  Task      842 on host n2cn1027.ab2021.local reporting.
  Task      843 on host n2cn1027.ab2021.local reporting.
  Task      844 on host n2cn1027.ab2021.local reporting.
  Task      845 on host n2cn1027.ab2021.local reporting.
  Task      846 on host n2cn1027.ab2021.local reporting.
  Task      847 on host n2cn1027.ab2021.local reporting.
  Task      848 on host n2cn1027.ab2021.local reporting.
  Task      849 on host n2cn1027.ab2021.local reporting.
  Task      850 on host n2cn1027.ab2021.local reporting.
  Task      851 on host n2cn1027.ab2021.local reporting.
  Task      852 on host n2cn1027.ab2021.local reporting.
  Task      853 on host n2cn1027.ab2021.local reporting.
  Task      854 on host n2cn1027.ab2021.local reporting.
  Task      855 on host n2cn1027.ab2021.local reporting.
  Task      856 on host n2cn1027.ab2021.local reporting.
  Task      857 on host n2cn1027.ab2021.local reporting.
  Task      858 on host n2cn1027.ab2021.local reporting.
  Task      859 on host n2cn1027.ab2021.local reporting.
  Task      860 on host n2cn1027.ab2021.local reporting.
  Task      861 on host n2cn1027.ab2021.local reporting.
  Task      862 on host n2cn1027.ab2021.local reporting.
  Task      863 on host n2cn1027.ab2021.local reporting.
  Task      864 on host n2cn1027.ab2021.local reporting.
  Task      865 on host n2cn1027.ab2021.local reporting.
  Task      866 on host n2cn1027.ab2021.local reporting.
  Task      867 on host n2cn1027.ab2021.local reporting.
  Task      868 on host n2cn1027.ab2021.local reporting.
  Task      869 on host n2cn1027.ab2021.local reporting.
  Task      870 on host n2cn1027.ab2021.local reporting.
  Task      871 on host n2cn1027.ab2021.local reporting.
  Task      872 on host n2cn1027.ab2021.local reporting.
  Task      873 on host n2cn1027.ab2021.local reporting.
  Task      874 on host n2cn1027.ab2021.local reporting.
  Task      875 on host n2cn1027.ab2021.local reporting.
  Task      876 on host n2cn1027.ab2021.local reporting.
  Task      877 on host n2cn1027.ab2021.local reporting.
  Task      878 on host n2cn1027.ab2021.local reporting.
  Task      879 on host n2cn1027.ab2021.local reporting.
  Task      880 on host n2cn1027.ab2021.local reporting.
  Task      881 on host n2cn1027.ab2021.local reporting.
  Task      882 on host n2cn1027.ab2021.local reporting.
  Task      883 on host n2cn1027.ab2021.local reporting.
  Task      884 on host n2cn1027.ab2021.local reporting.
  Task      885 on host n2cn1027.ab2021.local reporting.
  Task      886 on host n2cn1027.ab2021.local reporting.
  Task      887 on host n2cn1027.ab2021.local reporting.
  Task      888 on host n2cn1027.ab2021.local reporting.
  Task      889 on host n2cn1027.ab2021.local reporting.
  Task      890 on host n2cn1027.ab2021.local reporting.
  Task      891 on host n2cn1027.ab2021.local reporting.
  Task      892 on host n2cn1027.ab2021.local reporting.
  Task      893 on host n2cn1027.ab2021.local reporting.
  Task      894 on host n2cn1027.ab2021.local reporting.
  Task      895 on host n2cn1027.ab2021.local reporting.
  Task      896 on host n2cn1070.ab2021.local reporting.
  Task      897 on host n2cn1070.ab2021.local reporting.
  Task      898 on host n2cn1070.ab2021.local reporting.
  Task      899 on host n2cn1070.ab2021.local reporting.
  Task      900 on host n2cn1070.ab2021.local reporting.
  Task      901 on host n2cn1070.ab2021.local reporting.
  Task      902 on host n2cn1070.ab2021.local reporting.
  Task      903 on host n2cn1070.ab2021.local reporting.
  Task      904 on host n2cn1070.ab2021.local reporting.
  Task      905 on host n2cn1070.ab2021.local reporting.
  Task      906 on host n2cn1070.ab2021.local reporting.
  Task      907 on host n2cn1070.ab2021.local reporting.
  Task      908 on host n2cn1070.ab2021.local reporting.
  Task      909 on host n2cn1070.ab2021.local reporting.
  Task      910 on host n2cn1070.ab2021.local reporting.
  Task      911 on host n2cn1070.ab2021.local reporting.
  Task      912 on host n2cn1070.ab2021.local reporting.
  Task      913 on host n2cn1070.ab2021.local reporting.
  Task      914 on host n2cn1070.ab2021.local reporting.
  Task      915 on host n2cn1070.ab2021.local reporting.
  Task      916 on host n2cn1070.ab2021.local reporting.
  Task      917 on host n2cn1070.ab2021.local reporting.
  Task      918 on host n2cn1070.ab2021.local reporting.
  Task      919 on host n2cn1070.ab2021.local reporting.
  Task      920 on host n2cn1070.ab2021.local reporting.
  Task      921 on host n2cn1070.ab2021.local reporting.
  Task      922 on host n2cn1070.ab2021.local reporting.
  Task      923 on host n2cn1070.ab2021.local reporting.
  Task      924 on host n2cn1070.ab2021.local reporting.
  Task      925 on host n2cn1070.ab2021.local reporting.
  Task      926 on host n2cn1070.ab2021.local reporting.
  Task      927 on host n2cn1070.ab2021.local reporting.
  Task      928 on host n2cn1070.ab2021.local reporting.
  Task      929 on host n2cn1070.ab2021.local reporting.
  Task      930 on host n2cn1070.ab2021.local reporting.
  Task      931 on host n2cn1070.ab2021.local reporting.
  Task      932 on host n2cn1070.ab2021.local reporting.
  Task      933 on host n2cn1070.ab2021.local reporting.
  Task      934 on host n2cn1070.ab2021.local reporting.
  Task      935 on host n2cn1070.ab2021.local reporting.
  Task      936 on host n2cn1070.ab2021.local reporting.
  Task      937 on host n2cn1070.ab2021.local reporting.
  Task      938 on host n2cn1070.ab2021.local reporting.
  Task      939 on host n2cn1070.ab2021.local reporting.
  Task      940 on host n2cn1070.ab2021.local reporting.
  Task      941 on host n2cn1070.ab2021.local reporting.
  Task      942 on host n2cn1070.ab2021.local reporting.
  Task      943 on host n2cn1070.ab2021.local reporting.
  Task      944 on host n2cn1070.ab2021.local reporting.
  Task      945 on host n2cn1070.ab2021.local reporting.
  Task      946 on host n2cn1070.ab2021.local reporting.
  Task      947 on host n2cn1070.ab2021.local reporting.
  Task      948 on host n2cn1070.ab2021.local reporting.
  Task      949 on host n2cn1070.ab2021.local reporting.
  Task      950 on host n2cn1070.ab2021.local reporting.
  Task      951 on host n2cn1070.ab2021.local reporting.
  Task      952 on host n2cn1070.ab2021.local reporting.
  Task      953 on host n2cn1070.ab2021.local reporting.
  Task      954 on host n2cn1070.ab2021.local reporting.
  Task      955 on host n2cn1070.ab2021.local reporting.
  Task      956 on host n2cn1070.ab2021.local reporting.
  Task      957 on host n2cn1070.ab2021.local reporting.
  Task      958 on host n2cn1070.ab2021.local reporting.
  Task      959 on host n2cn1070.ab2021.local reporting.
  Task      960 on host n2cn1070.ab2021.local reporting.
  Task      961 on host n2cn1070.ab2021.local reporting.
  Task      962 on host n2cn1070.ab2021.local reporting.
  Task      963 on host n2cn1070.ab2021.local reporting.
  Task      964 on host n2cn1070.ab2021.local reporting.
  Task      965 on host n2cn1070.ab2021.local reporting.
  Task      966 on host n2cn1070.ab2021.local reporting.
  Task      967 on host n2cn1070.ab2021.local reporting.
  Task      968 on host n2cn1070.ab2021.local reporting.
  Task      969 on host n2cn1070.ab2021.local reporting.
  Task      970 on host n2cn1070.ab2021.local reporting.
  Task      971 on host n2cn1070.ab2021.local reporting.
  Task      972 on host n2cn1070.ab2021.local reporting.
  Task      973 on host n2cn1070.ab2021.local reporting.
  Task      974 on host n2cn1070.ab2021.local reporting.
  Task      975 on host n2cn1070.ab2021.local reporting.
  Task      976 on host n2cn1070.ab2021.local reporting.
  Task      977 on host n2cn1070.ab2021.local reporting.
  Task      978 on host n2cn1070.ab2021.local reporting.
  Task      979 on host n2cn1070.ab2021.local reporting.
  Task      980 on host n2cn1070.ab2021.local reporting.
  Task      981 on host n2cn1070.ab2021.local reporting.
  Task      982 on host n2cn1070.ab2021.local reporting.
  Task      983 on host n2cn1070.ab2021.local reporting.
  Task      984 on host n2cn1070.ab2021.local reporting.
  Task      985 on host n2cn1070.ab2021.local reporting.
  Task      986 on host n2cn1070.ab2021.local reporting.
  Task      987 on host n2cn1070.ab2021.local reporting.
  Task      988 on host n2cn1070.ab2021.local reporting.
  Task      989 on host n2cn1070.ab2021.local reporting.
  Task      990 on host n2cn1070.ab2021.local reporting.
  Task      991 on host n2cn1070.ab2021.local reporting.
  Task      992 on host n2cn1070.ab2021.local reporting.
  Task      993 on host n2cn1070.ab2021.local reporting.
  Task      994 on host n2cn1070.ab2021.local reporting.
  Task      995 on host n2cn1070.ab2021.local reporting.
  Task      996 on host n2cn1070.ab2021.local reporting.
  Task      997 on host n2cn1070.ab2021.local reporting.
  Task      998 on host n2cn1070.ab2021.local reporting.
  Task      999 on host n2cn1070.ab2021.local reporting.
  Task     1000 on host n2cn1070.ab2021.local reporting.
  Task     1001 on host n2cn1070.ab2021.local reporting.
  Task     1002 on host n2cn1070.ab2021.local reporting.
  Task     1003 on host n2cn1070.ab2021.local reporting.
  Task     1004 on host n2cn1070.ab2021.local reporting.
  Task     1005 on host n2cn1070.ab2021.local reporting.
  Task     1006 on host n2cn1070.ab2021.local reporting.
  Task     1007 on host n2cn1070.ab2021.local reporting.
  Task     1008 on host n2cn1070.ab2021.local reporting.
  Task     1009 on host n2cn1070.ab2021.local reporting.
  Task     1010 on host n2cn1070.ab2021.local reporting.
  Task     1011 on host n2cn1070.ab2021.local reporting.
  Task     1012 on host n2cn1070.ab2021.local reporting.
  Task     1013 on host n2cn1070.ab2021.local reporting.
  Task     1014 on host n2cn1070.ab2021.local reporting.
  Task     1015 on host n2cn1070.ab2021.local reporting.
  Task     1016 on host n2cn1070.ab2021.local reporting.
  Task     1017 on host n2cn1070.ab2021.local reporting.
  Task     1018 on host n2cn1070.ab2021.local reporting.
  Task     1019 on host n2cn1070.ab2021.local reporting.
  Task     1020 on host n2cn1070.ab2021.local reporting.
  Task     1021 on host n2cn1070.ab2021.local reporting.
  Task     1022 on host n2cn1070.ab2021.local reporting.
  Task     1023 on host n2cn1070.ab2021.local reporting.

  Performing system and environment tests:
  | Environment variable OMP_NUM_THREADS correctly set to 1.
  | Checking for ScaLAPACK...
  | Testing pdtran()...
  | All pdtran() tests passed.

  Obtaining array dimensions for all initial allocations:
  
  -----------------------------------------------------------------------
  Parsing control.in (first pass over file, find array dimensions only).
  The contents of control.in will be repeated verbatim below
  unless switched off by setting 'verbatim_writeout .false.' .
  in the first line of control.in .
  -----------------------------------------------------------------------
  
  #control.in header for database project
  #using def2-QVPZ basis for light and heavy elements
  
  #########################################
    xc pbe
    qpe_calc ev_scgw0
    #RI_method v
    #spin               collinear
    #default_initial_moment 0.01
    spin none
  
    iterations_sc_cd 20
    frequency_points 2000
    full_cmplx_sigma .true.
  
    anacon_type  1
    n_anacon_par 128
    contour_def_gw   22 32
    nocc_sc_cd 10
    nvirt_sc_cd 10
    contour_eta 0.004
    state_lower_limit 1
    state_upper_limit 500
    #print_self_energy 21 -20.0 0.0
  
    relativistic none
    override_relativity .true.
    partition_type rho_r2
    density_update_method density_matrix
  
    calc_spectral_func -20.0 0.0 0.001
  
  #########################################
    occupation_type    gaussian 0.000001
    mixer              pulay
      n_max_pulay        10
      charge_mix_param   0.2
    sc_accuracy_rho    1E-5
    sc_accuracy_eev    1E-5
    sc_accuracy_etot   1E-5
    sc_iter_limit      400
  #########################################
    prodbas_threshold  1.e-5
    KS_method          serial
    empty_states       25000
    # Do not check for overlapping xxx matrix
    # Not recommended
    # Necessary for large basis sets
    override_illconditioning .true.
    basis_threshold 1.e-5
  #########################################
  
  ################################################################################
  #
  #  FHI-aims code project
  #  VB, Fritz-Haber Institut, 2007
  #
  #  Suggested "safe" defaults for Cu atom (to be pasted into control.in file)
  #
  ################################################################################
    species        Cu
  #
      nucleus      29
      mass         63.546
  #
      l_hartree           8
  #
      cut_pot      4.0  2.0  1.0
      basis_dep_cutoff    0.d0
  #
      radial_base        53 7.0
      radial_multiplier  2
      angular_grids       specified
        division   0.7212  110
        division   0.9907  194
        division   1.1992  302
        division   1.6856  434
        division   1.8201  590
  #      division   1.8921  770
  #      division   2.4078  974
  #      outer_grid   974
        outer_grid   590
  ################################################################################
  #
  #  Definition of "minimal" basis
  #
  ################################################################################
  #     valence basis states
      valence      4  s   1.
      valence      3  p   6.
      valence      3  d  10.
  #     ion occupancy
      ion_occ      4  s   0.
      ion_occ      3  p   6.
      ion_occ      3  d   9.
  
  
              # The default minimal basis should not be included
              include_min_basis .false.
              # Use spherical functions?
              pure_gauss .true.
              # Cu def2-QZVP
  gaussian 0 11
5056467.8898000              0.93501916365E-05
 759457.8383500              0.72323443222E-04
 173524.8849700              0.37813833845E-03
  49327.2599880              0.15870129862E-02
  16144.1499300              0.57220685294E-02
   5844.5964680              0.18268390048E-01
   2284.6812739              0.51893720863E-01
    948.88232514             0.12796192366
    413.66215455             0.25629891036
    187.38942059             0.36064416138
     86.872771648            0.26833664660
  gaussian 0 4
   1744.0598287              0.88587079141E-02
    540.93295513             0.86522785813E-01
    207.99736224             0.38932285258
     90.475793036            0.69777199902
  gaussian 0 1 38.869687699
  gaussian 0 1 18.974829147
  gaussian 0 1 9.0953644635
  gaussian 0 1 3.8330020174
  gaussian 0 1 1.8198891499
  gaussian 0 1 0.79068098393
  gaussian 0 1 0.14914142106
  gaussian 0 1 0.72448090592E-01
  gaussian 0 1 0.30959925368E-01
  gaussian 1 9
   9720.4614555              0.17828803512E-03
   2302.7557452              0.15678108633E-02
    747.48498314             0.87470094509E-02
    285.00132623             0.36044549301E-01
    120.15121609             0.11287209053
     54.145261156            0.25647377341
     25.406033563            0.38512918379
     12.224331465            0.30316512356
      5.7638720668           0.81677218969E-01
  gaussian 1 5
     83.210837217           -0.63530359993E-02
     29.694779129           -0.31383834666E-01
      5.8248516206           0.30930039753
      2.6746181180           0.63583925938
      1.1841836775           0.50946045967
  gaussian 1 1 0.48043583535
  gaussian 1 1 0.1870000
  gaussian 1 1 0.0762000
  gaussian 1 1 0.0310000
  gaussian 2 6
    249.54025080             0.12432881244E-02
     74.683914534            0.10456901995E-01
     28.392717116            0.46451241249E-01
     11.955968430            0.13541359729
      5.3210744624           0.25852899978
      2.3661189459           0.33168127635
  gaussian 2 1 1.0131863994
  gaussian 2 1 0.40710035940
  gaussian 2 1 0.14742541032
  gaussian 2 1 0.71E-01
  gaussian 3 1 6.9620000
  gaussian 3 1 2.2330000
  gaussian 3 1 0.7040000
  gaussian 4 1 3.2450000
  
  ################################################################################
  #
  #  FHI-aims code project
  #  VB, Fritz-Haber Institut, 2007
  #
  #  Suggested "safe" defaults for C atom (to be pasted into control.in file)
  #
  ################################################################################
    species        C
  #     global species definitions
      nucleus             6
      mass                12.0107
  #
      l_hartree           8
  #
      cut_pot             4.0  2.0  1.0
      basis_dep_cutoff    0.d0
  #
      radial_base         34 7.0
      radial_multiplier   2
      angular_grids specified
        division   0.4031  110
        division   0.5191  194
        division   0.6263  302
        division   0.8150  434
        division   0.8501  590
  #     division   0.9238  770
  #     division   1.6076  974
  #     outer_grid  974
       outer_grid 590
  ################################################################################
  #
  #  Definition of "minimal" basis
  #
  ################################################################################
  #     valence basis states
      valence      2  s   2.
      valence      2  p   2.
  #     ion occupancy
      ion_occ      2  s   1.
      ion_occ      2  p   1.
  
              # The default minimal basis should not be included
              include_min_basis .false.
              # Use spherical functions?
              pure_gauss .true.
              # C def2-QZVP
  gaussian 0 8
  67025.0710290              0.38736308501E-04
  10039.9865380              0.30107917575E-03
   2284.9316911              0.15787918095E-02
    647.14122130             0.66087087195E-02
    211.09472335             0.23367123250E-01
     76.177643862            0.70420716898E-01
     29.633839163            0.17360344953
     12.187785081            0.32292305648
  gaussian 0 2
     53.026006299            0.74897404492E-01
     15.258502776            0.76136220983
  gaussian 0 1 5.2403957464
  gaussian 0 1 2.2905022379
  gaussian 0 1 0.69673283006
  gaussian 0 1 0.27599337363
  gaussian 0 1 0.10739884389
  gaussian 1 5
    105.12555082             0.84647553844E-03
     24.884461066            0.66274038534E-02
      7.8637230826           0.30120390419E-01
      2.8407001835           0.99951435476E-01
      1.1227137335           0.23826299282
  gaussian 1 1 0.46050725555
  gaussian 1 1 0.18937530913
  gaussian 1 1 0.75983791611E-01
  gaussian 2 1 1.84800000
  gaussian 2 1 0.64900000
  gaussian 2 1 0.22800000
  gaussian 3 1 1.41900000
  gaussian 3 1 0.48500000
  gaussian 4 1 1.01100000
  
  ################################################################################
  #
  #  FHI-aims code project
  #  VB, Fritz-Haber Institut, 2007
  #
  #  Suggested "safe" defaults for N atom (to be pasted into control.in file)
  #
  ################################################################################
    species        N
  #     global species definitions
      nucleus             7
      mass                14.0067
  #
      l_hartree           8
  #
      cut_pot             4.0  2.0  1.0
      basis_dep_cutoff    0.d0
  #
      radial_base         35 7.0
      radial_multiplier   2
      angular_grids       specified
        division   0.3806  110
        division   0.5126  194
        division   0.5309  302
        division   0.7632  434
  #      division   0.7874  770
  #      division   3.0496  974
  #      outer_grid  974
        outer_grid  590
  ################################################################################
  #
  #  Definition of "minimal" basis
  #
  ################################################################################
  #     valence basis states
      valence      2  s   2.
      valence      2  p   3.
  #     ion occupancy
      ion_occ      2  s   1.
      ion_occ      2  p   2.
  
  
              # The default minimal basis should not be included
              include_min_basis .false.
              # Use spherical functions?
              pure_gauss .true.
              # N def2-QZVP
  gaussian 0 8
  90726.8892100              0.39257887368E-04
  13590.5288010              0.30513316455E-03
   3092.9883781              0.16000560446E-02
    875.99876362             0.66982937306E-02
    285.74469982             0.23690078765E-01
    103.11913417             0.71455405268E-01
     40.128556777            0.17632774876
     16.528095704            0.32677592815
  gaussian 0 2
     69.390960983            0.80052094386E-01
     20.428200596            0.78268063538
  gaussian 0 1 7.1292587972
  gaussian 0 1 3.1324304893
  gaussian 0 1 0.98755778723
  gaussian 0 1 0.38765721307
  gaussian 0 1 0.14909883075
  gaussian 1 5
    150.05742670            -0.86216165986E-03
     35.491599483           -0.68571273236E-02
     11.247864223           -0.31795688855E-01
      4.0900305195          -0.10537396822
      1.6220573146          -0.24519708041
  gaussian 1 1 0.66442261530
  gaussian 1 1 0.27099770070
  gaussian 1 1 0.10688749984
  gaussian 2 1 2.83700000
  gaussian 2 1 0.96800000
  gaussian 2 1 0.33500000
  gaussian 3 1 2.02700000
  gaussian 3 1 0.68500000
  gaussian 4 1 1.42700000
  
  
  
  -----------------------------------------------------------------------
  Completed first pass over input file control.in .
  -----------------------------------------------------------------------
  
  
  -----------------------------------------------------------------------
  Parsing geometry.in (first pass over file, find array dimensions only).
  The contents of geometry.in will be repeated verbatim below
  unless switched off by setting 'verbatim_writeout .false.' .
  in the first line of geometry.in .
  -----------------------------------------------------------------------
  
  atom 0.0000 0.0000 0.0000 C
  atom 0.0000 0.0000 1.158  N
  atom 0.0000 0.0000 -1.832 Cu
  
  -----------------------------------------------------------------------
  Completed first pass over input file geometry.in .
  -----------------------------------------------------------------------
  

  Basic array size parameters:
  | Number of species                 :        3
  | Number of atoms                   :        3
  | Max. basis fn. angular momentum   :        4
  | Max. atomic/ionic basis occupied n:        4
  | Max. number of basis fn. types    :        1
  | Max. radial fns per species/type  :       36
  | Max. logarithmic grid size        :     1406
  | Max. radial integration grid size :      107
  | Max. angular integration grid size:      590
  | Max. angular grid division number :        8
  | Radial grid for Hartree potential :     1406
  | Number of spin channels           :        1

------------------------------------------------------------
          Reading file control.in.
------------------------------------------------------------
  XC: Using PBE gradient-corrected functionals.
  Eigenvalue self-consistent GW0 quasiparticle calculation (without MO update) of excited state will be started after the DFT/HF calculation.
  Spin treatment: No spin polarisation.
  Number of iterations for ev_scGW or ev_scGW0 with CD:    20
  Number of frequency points used for the self-energy calculation:   2000
  Evaluate full complex self energy for CD (including complex integral term).
  Using Pade approximation for analytical continuation.
  Number of fitting parameters for analytical continuation :    128
  Contour deformation in GW for the levels:     22     to      32
  Number of occupied states explicity calculated in ev_scGW or ev_scGW0 with CD:    10 for spin   1
  Number of virtual states explicity calculated in ev_scGW or ev_scGW0 with CD:     10 for spin   1
  Broadening parameter eta:       0.004000
  Lower limit of the eigenstates for the self-energy correction :      1
  Upper limit of the eigenstates for the self-energy correction :    500
  Non-relativistic treatment of kinetic energy.
  override_relativity: Explicitly overriding any built-in relativity checks.
  If you use this flag, you should really know what you are doing.
  Partition function in integrals calculations: rho / r^2
  Spectral function will be calculated from:   -20.000   to        0.000  eV
  Occupation type: Gaussian broadening, width =   0.100000E-05 eV.
  Using pulay charge density mixing.
  Pulay mixing - number of memorized iterations:   10
  Charge density mixing - mixing parameter:     0.2000
  Convergence accuracy of self-consistent charge density:  0.1000E-04
  Convergence accuracy of sum of eigenvalues:  0.1000E-04
  Convergence accuracy of total energy:  0.1000E-04
  Maximum number of s.-c. iterations  :   400
  Threshold for auxiliary basis singularities:  0.1000E-04
  Kohn-Sham eigenvalues and eigenfunctions calculated by LAPACK via ELSI.
  Number of empty states per atom:    25000
  override_illconditioning: Explicitly overriding any built-in checks for an ill-conditioned overlap matrix.
  *** WARNING: If you use this flag, you should really know what you are doing.
  *** DO NOT keep this flag set by default in all your control.in files.
  Threshold for basis singularities:  0.1000E-04

  Reading configuration options for species Cu                  .
  | Found nuclear charge :  29.0000
  | Found atomic mass :    63.545999999999999      amu
  | Found l_max for Hartree potential  :   8
  | Found cutoff potl. onset [A], width [A], scale factor :    4.00000    2.00000    1.00000
  | Threshold for basis-dependent cutoff potential is   0.000000E+00
  | Found data for basic radial integration grid :    53 points, outermost radius =    7.000 A
  | Found multiplier for basic radial grid :   2
  | Found angular grid specification: user-specified.
  | Specified grid contains     6 separate shells.
  | Check grid settings after all constraints further below.
  | Found free-atom valence shell :  4 s   1.000
  | Found free-atom valence shell :  3 p   6.000
  | Found free-atom valence shell :  3 d  10.000
  | No ionic wave fns used. Skipping ion_occ.
  | No ionic wave fns used. Skipping ion_occ.
  | No ionic wave fns used. Skipping ion_occ.
  | Found request to include minimal basis fns. :     F
  | Found request to include pure gaussian fns. :     T
  | Found contracted cartesian Gaussian basis function :  L = 0 ,  11 elementary Gaussians:
  |   alpha = 0.505647E+07 weight = 0.935019E-05
  |   alpha = 0.759458E+06 weight = 0.723234E-04
  |   alpha = 0.173525E+06 weight = 0.378138E-03
  |   alpha = 0.493273E+05 weight = 0.158701E-02
  |   alpha = 0.161441E+05 weight = 0.572207E-02
  |   alpha = 0.584460E+04 weight = 0.182684E-01
  |   alpha = 0.228468E+04 weight = 0.518937E-01
  |   alpha = 0.948882E+03 weight = 0.127962E+00
  |   alpha = 0.413662E+03 weight = 0.256299E+00
  |   alpha = 0.187389E+03 weight = 0.360644E+00
  |   alpha = 0.868728E+02 weight = 0.268337E+00
  |   In terms of angular momentum, this radial function adds: 
  |     1 s-type basis function
  | Found contracted cartesian Gaussian basis function :  L = 0 ,   4 elementary Gaussians:
  |   alpha = 0.174406E+04 weight = 0.885871E-02
  |   alpha = 0.540933E+03 weight = 0.865228E-01
  |   alpha = 0.207997E+03 weight = 0.389323E+00
  |   alpha = 0.904758E+02 weight = 0.697772E+00
  |   In terms of angular momentum, this radial function adds: 
  |     1 s-type basis function
  | Found primitive cartesian Gaussian basis function :  0 0.388697E+02
  |   In terms of angular momentum, this radial function adds: 
  |     1 s-type basis function
  | Found primitive cartesian Gaussian basis function :  0 0.189748E+02
  |   In terms of angular momentum, this radial function adds: 
  |     1 s-type basis function
  | Found primitive cartesian Gaussian basis function :  0 0.909536E+01
  |   In terms of angular momentum, this radial function adds: 
  |     1 s-type basis function
  | Found primitive cartesian Gaussian basis function :  0 0.383300E+01
  |   In terms of angular momentum, this radial function adds: 
  |     1 s-type basis function
  | Found primitive cartesian Gaussian basis function :  0 0.181989E+01
  |   In terms of angular momentum, this radial function adds: 
  |     1 s-type basis function
  | Found primitive cartesian Gaussian basis function :  0 0.790681E+00
  |   In terms of angular momentum, this radial function adds: 
  |     1 s-type basis function
  | Found primitive cartesian Gaussian basis function :  0 0.149141E+00
  |   In terms of angular momentum, this radial function adds: 
  |     1 s-type basis function
  | Found primitive cartesian Gaussian basis function :  0 0.724481E-01
  |   In terms of angular momentum, this radial function adds: 
  |     1 s-type basis function
  | Found primitive cartesian Gaussian basis function :  0 0.309599E-01
  |   In terms of angular momentum, this radial function adds: 
  |     1 s-type basis function
  | Found contracted cartesian Gaussian basis function :  L = 1 ,   9 elementary Gaussians:
  |   alpha = 0.972046E+04 weight = 0.178288E-03
  |   alpha = 0.230276E+04 weight = 0.156781E-02
  |   alpha = 0.747485E+03 weight = 0.874701E-02
  |   alpha = 0.285001E+03 weight = 0.360445E-01
  |   alpha = 0.120151E+03 weight = 0.112872E+00
  |   alpha = 0.541453E+02 weight = 0.256474E+00
  |   alpha = 0.254060E+02 weight = 0.385129E+00
  |   alpha = 0.122243E+02 weight = 0.303165E+00
  |   alpha = 0.576387E+01 weight = 0.816772E-01
  |   In terms of angular momentum, this radial function adds: 
  |     3 p-type basis functions
  | Found contracted cartesian Gaussian basis function :  L = 1 ,   5 elementary Gaussians:
  |   alpha = 0.832108E+02 weight = -.635304E-02
  |   alpha = 0.296948E+02 weight = -.313838E-01
  |   alpha = 0.582485E+01 weight = 0.309300E+00
  |   alpha = 0.267462E+01 weight = 0.635839E+00
  |   alpha = 0.118418E+01 weight = 0.509460E+00
  |   In terms of angular momentum, this radial function adds: 
  |     3 p-type basis functions
  | Found primitive cartesian Gaussian basis function :  1 0.480436E+00
  |   In terms of angular momentum, this radial function adds: 
  |     3 p-type basis functions
  | Found primitive cartesian Gaussian basis function :  1 0.187000E+00
  |   In terms of angular momentum, this radial function adds: 
  |     3 p-type basis functions
  | Found primitive cartesian Gaussian basis function :  1 0.762000E-01
  |   In terms of angular momentum, this radial function adds: 
  |     3 p-type basis functions
  | Found primitive cartesian Gaussian basis function :  1 0.310000E-01
  |   In terms of angular momentum, this radial function adds: 
  |     3 p-type basis functions
  | Found contracted cartesian Gaussian basis function :  L = 2 ,   6 elementary Gaussians:
  |   alpha = 0.249540E+03 weight = 0.124329E-02
  |   alpha = 0.746839E+02 weight = 0.104569E-01
  |   alpha = 0.283927E+02 weight = 0.464512E-01
  |   alpha = 0.119560E+02 weight = 0.135414E+00
  |   alpha = 0.532107E+01 weight = 0.258529E+00
  |   alpha = 0.236612E+01 weight = 0.331681E+00
  |   In terms of angular momentum, this radial function adds: 
  |     5 d-type basis functions
  | Found primitive cartesian Gaussian basis function :  2 0.101319E+01
  |   In terms of angular momentum, this radial function adds: 
  |     5 d-type basis functions
  | Found primitive cartesian Gaussian basis function :  2 0.407100E+00
  |   In terms of angular momentum, this radial function adds: 
  |     5 d-type basis functions
  | Found primitive cartesian Gaussian basis function :  2 0.147425E+00
  |   In terms of angular momentum, this radial function adds: 
  |     5 d-type basis functions
  | Found primitive cartesian Gaussian basis function :  2 0.710000E-01
  |   In terms of angular momentum, this radial function adds: 
  |     5 d-type basis functions
  | Found primitive cartesian Gaussian basis function :  3 0.696200E+01
  |   In terms of angular momentum, this radial function adds: 
  |     7 f-type basis functions
  | Found primitive cartesian Gaussian basis function :  3 0.223300E+01
  |   In terms of angular momentum, this radial function adds: 
  |     7 f-type basis functions
  | Found primitive cartesian Gaussian basis function :  3 0.704000E+00
  |   In terms of angular momentum, this radial function adds: 
  |     7 f-type basis functions
  | Found primitive cartesian Gaussian basis function :  4 0.324500E+01
  |   In terms of angular momentum, this radial function adds: 
  |     9 g-type basis functions
  Species Cu                  : Missing cutoff potential type.
  Defaulting to exp(1/x)/(1-x)^2 type cutoff potential.
  Species Cu: No 'logarithmic' tag. Using default grid for free atom:
  | Default logarithmic grid data [bohr] : 0.1000E-03 0.1000E+03 0.1012E+01
  Species Cu: On-site basis accuracy parameter (for Gram-Schmidt orthonormalisation) not specified.
  Using default value basis_acc =  0.1000000E-03.
  Species Cu                  : Using default innermost maximum threshold i_radial=  2 for radial functions.
  Species Cu                  : Default cutoff onset for free atom density etc. is infinite
  since the product basis is used (hybrid functionals, Hartree-Fock, GW etc.).
  Species Cu                  : Basic radial grid will be enhanced according to radial_multiplier =   2, to contain   107 grid points.

  Reading configuration options for species C                   .
  | Found nuclear charge :   6.0000
  | Found atomic mass :    12.010700000000000      amu
  | Found l_max for Hartree potential  :   8
  | Found cutoff potl. onset [A], width [A], scale factor :    4.00000    2.00000    1.00000
  | Threshold for basis-dependent cutoff potential is   0.000000E+00
  | Found data for basic radial integration grid :    34 points, outermost radius =    7.000 A
  | Found multiplier for basic radial grid :   2
  | Found angular grid specification: user-specified.
  | Specified grid contains     6 separate shells.
  | Check grid settings after all constraints further below.
  | Found free-atom valence shell :  2 s   2.000
  | Found free-atom valence shell :  2 p   2.000
  | No ionic wave fns used. Skipping ion_occ.
  | No ionic wave fns used. Skipping ion_occ.
  | Found request to include minimal basis fns. :     F
  | Found request to include pure gaussian fns. :     T
  | Found contracted cartesian Gaussian basis function :  L = 0 ,   8 elementary Gaussians:
  |   alpha = 0.670251E+05 weight = 0.387363E-04
  |   alpha = 0.100400E+05 weight = 0.301079E-03
  |   alpha = 0.228493E+04 weight = 0.157879E-02
  |   alpha = 0.647141E+03 weight = 0.660871E-02
  |   alpha = 0.211095E+03 weight = 0.233671E-01
  |   alpha = 0.761776E+02 weight = 0.704207E-01
  |   alpha = 0.296338E+02 weight = 0.173603E+00
  |   alpha = 0.121878E+02 weight = 0.322923E+00
  |   In terms of angular momentum, this radial function adds: 
  |     1 s-type basis function
  | Found contracted cartesian Gaussian basis function :  L = 0 ,   2 elementary Gaussians:
  |   alpha = 0.530260E+02 weight = 0.748974E-01
  |   alpha = 0.152585E+02 weight = 0.761362E+00
  |   In terms of angular momentum, this radial function adds: 
  |     1 s-type basis function
  | Found primitive cartesian Gaussian basis function :  0 0.524040E+01
  |   In terms of angular momentum, this radial function adds: 
  |     1 s-type basis function
  | Found primitive cartesian Gaussian basis function :  0 0.229050E+01
  |   In terms of angular momentum, this radial function adds: 
  |     1 s-type basis function
  | Found primitive cartesian Gaussian basis function :  0 0.696733E+00
  |   In terms of angular momentum, this radial function adds: 
  |     1 s-type basis function
[...]
     108    0.0000       92.2793       -2.8208      -13.8516       -2.4080       94.1828
     109    0.0000       92.2793       -2.8208      -13.8516       -3.6513       94.1828
     110    0.0000       92.7151       -5.4552      -17.1617       -2.7033       94.6185
     111    0.0000       94.8297       -5.4111      -18.2755       -3.8776       96.7332
     112    0.0000      102.3359       -4.4605      -17.6397       -4.4634      104.2393
     113    0.0000      102.3359       -4.4605      -17.6397       -4.9022      104.2393
     114    0.0000      103.2012       -3.9690      -15.9438       -4.7338      105.1047
     115    0.0000      119.0292      -12.8448      -29.8194       -6.2040      120.9327
     116    0.0000      119.0293      -12.8448      -29.8194       -6.0877      120.9328
     117    0.0000      120.1986       -8.8042      -24.2291       -4.0746      122.1021
     118    0.0000      121.4282      -12.3344      -29.1148       -6.0570      123.3316
     119    0.0000      121.4282      -12.3344      -29.1148       -6.1651      123.3316
     120    0.0000      128.0196       -4.5532      -19.3779       -3.0722      129.9231
     121    0.0000      128.0196       -4.5532      -19.3779       -3.2997      129.9231
     122    0.0000      128.6966       -1.2213      -12.6938       -1.7860      130.6001
     123    0.0000      128.6967       -1.2213      -12.6938       -1.8845      130.6002
     124    0.0000      130.5632       -1.6053      -13.8591       -2.0942      132.4667
     125    0.0000      130.5632       -1.6053      -13.8591       -1.6692      132.4667
     126    0.0000      130.7981       -8.7109      -25.1853       -4.6836      132.7016
     127    0.0000      141.7828       -3.4457      -16.9336       -4.0897      143.6863
     128    0.0000      146.8769       -2.1885      -15.4980       -2.7973      148.7804
     129    0.0000      146.8770       -2.1884      -15.4979       -2.7520      148.7804
     130    0.0000      149.5757       -2.1355      -15.3455       -3.9762      151.4792
     131    0.0000      149.5757       -2.1355      -15.3455       -4.8369      151.4792
     132    0.0000      157.4299       -1.9632      -15.5682       -5.5285      159.3334
     133    0.0000      157.4299       -1.9633      -15.5682       -5.4658      159.3334
     134    0.0000      158.4002       -1.7102      -15.1301       -5.7121      160.3037
     135    0.0000      158.4002       -1.7102      -15.1301       -5.7188      160.3037
     136    0.0000      160.1730       -2.5780      -16.8208       -4.2497      162.0765
     137    0.0000      160.1730       -2.5780      -16.8208       -4.3896      162.0765
     138    0.0000      162.4166       -3.8977      -18.7978       -3.6185      164.3201
     139    0.0000      163.0640       -2.1132      -16.2983       -5.7582      164.9675
     140    0.0000      163.0645       -2.1132      -16.2985       -6.0386      164.9680
     141    0.0000      179.2454       -5.3025      -20.8135       -3.9440      181.1489
     142    0.0000      181.3985      -13.5072      -30.9719       -6.1317      183.3019
     143    0.0000      181.3985      -13.5072      -30.9719       -5.8426      183.3019
     144    0.0000      183.5313      -13.1589      -30.6154       -2.6079      185.4348
     145    0.0000      183.5315      -13.1589      -30.6154       -4.5932      185.4350
     146    0.0000      184.3267       -1.6668      -15.7050       -2.3178      186.2302
     147    0.0000      184.3295       -1.6668      -15.7051       -3.5300      186.2329
     148    0.0000      188.2984       -9.9034      -26.9910       -4.3897      190.2019
     149    0.0000      188.2984       -9.9034      -26.9910       -6.4061      190.2019
     150    0.0000      195.9569       -1.7457      -16.2385        2.0282      197.8604
     151    0.0000      195.9569       -1.7457      -16.2385       -3.1092      197.8604
     152    0.0000      197.2464      -11.1375      -28.6881      -16.0574      199.1499
     153    0.0000      198.5744       -5.1048      -21.0314        2.4287      200.4779
     154    0.0000      198.5744       -5.1048      -21.0314       -1.8416      200.4779
     155    0.0000      201.5700       -3.9398      -19.7231       -1.2201      203.4735
     156    0.0000      218.3312       -3.1207      -18.7100       -1.2571      220.2347
     157    0.0000      223.5410       -2.1106      -17.7477       -2.6615      225.4445
     158    0.0000      223.5415       -2.1107      -17.7478       -2.7183      225.4449
     159    0.0000      227.5346       -2.3464      -18.1996       -2.4883      229.4381
     160    0.0000      227.5346       -2.3464      -18.1996       -2.5119      229.4381
     161    0.0000      227.6812       -2.3584      -18.8800       -6.6851      229.5847
     162    0.0000      227.6812       -2.3584      -18.8800       -6.3404      229.5847
     163    0.0000      235.5038       -2.4875      -19.2829       -6.5642      237.4073
     164    0.0000      235.5041       -2.4875      -19.2830       -6.6047      237.4076
     165    0.0000      242.2216       -4.6303      -22.1310       -3.1583      244.1250
     166    0.0000      250.7630       -2.6718      -20.0597       -5.3257      252.6665
     167    0.0000      250.7630       -2.6718      -20.0598       -5.6301      252.6665
     168    0.0000      256.4303       -2.6358      -20.0077       -5.7318      258.3338
     169    0.0000      256.4303       -2.6358      -20.0077       -6.1102      258.3338
     170    0.0000      258.4851       -6.7410      -25.1796       -5.2568      260.3886
     171    0.0000      291.1720       -4.7245      -23.5921       -6.2334      293.0754
     172    0.0000      302.3695       -2.5624      -20.4985       -2.4289      304.2730
     173    0.0000      302.3695       -2.5624      -20.4985       -2.4022      304.2730
     174    0.0000      302.7824      -17.8196      -41.3490       -3.3258      304.6858
     175    0.0000      342.2597       -5.9902      -25.5692       -2.7523      344.1632
     176    0.0000      345.9357       -8.6882      -34.0166       -6.6726      347.8392
     177    0.0000      345.9357       -8.6882      -34.0166       -6.5319      347.8392
     178    0.0000      345.9419       -8.6391      -33.9701       -7.1012      347.8454
     179    0.0000      345.9425       -8.6391      -33.9701       -7.4395      347.8460
     180    0.0000      346.0537       -8.6779      -33.9976       -5.5876      347.9572
     181    0.0000      346.0569       -8.6779      -33.9974       -5.5646      347.9604
     182    0.0000      346.9822       -8.5510      -33.8700       -6.1882      348.8857
     183    0.0000      346.9822       -8.5510      -33.8700       -5.9025      348.8857
     184    0.0000      348.4920       -8.4217      -33.5621       -5.5473      350.3955
     185    0.0000      555.9972      -14.7193      -47.5384      -10.1320      557.9007
     186    0.0000      555.9972      -14.7193      -47.5384      -10.3765      557.9007
     187    0.0000      557.0303      -14.7130      -47.5806      -10.3283      558.9337
     188    0.0000      557.0305      -14.7130      -47.5806      -10.7888      558.9340
     189    0.0000      561.6817      -14.4300      -47.3433      -11.0824      563.5852
     190    0.0000      561.6817      -14.4300      -47.3433      -10.9319      563.5852
     191    0.0000      564.8889      -14.2695      -47.2047      -10.9154      566.7923
     192    0.0000      762.7150      -13.0150      -46.3012       -0.7321      764.6184
     193    0.0000     1015.3477      -15.6086      -54.3056       -5.8100     1017.2512
     194    0.0000     1088.9331      -29.9513      -72.3000      -12.6749     1090.8365
     195    0.0000     3719.8172      -53.1342     -133.5424       -5.0607     3721.7207
     196    0.0000     4001.8063      -14.9180      -94.6083       -5.9628     4003.7097
     197    0.0000     5353.3159      -17.8073     -110.4836       -6.7812     5355.2194
     198    0.0000    24602.9363     -109.4333     -341.4032       -3.8117    24604.8398
----------------------------------------------------------------------------------------

   DFT/Hartree-Fock HOMO level (eV):    -6.7071   -6.7071

   Quasiparticle HOMO level (eV):      -10.6626  -10.6626
----------------------------------------------------------------------------------------

 ************************************************************
  ev-scGW0 converged
 ************************************************************
  
  Start calculating the spectral function

------------------------------------------------------------------------------------------------------

          | Total time for transforming the 3-center integrals :        0.465 s
          | Total time for calculating the exchange-correlation
                                  energy matrix elements   :        0.005 s
          | Total time for calculating polarisability     
                        for imaginary frequencies          :      188.020 s
          | Total time for calculating self energy 
                        on imaginary frequency axis        :      424.264 s
          | Total time for calculating the quasiparticle 
                  energies with analytic continuation      :        0.029 s
          | Total time for calculating the quasiparticle 
                  energies with contour deformation        :      524.858 s

------------------------------------------------------------------------------
  Final output of selected total energy values:

  The following output summarizes some interesting total energy values
  at the end of a run (AFTER all relaxation, molecular dynamics, etc.).

  | Total energy of the DFT / Hartree-Fock s.c.f. calculation      :         -47131.296139855 eV
  | Final zero-broadening corrected energy (caution - metals only) :         -47131.296139855 eV
  | For reference only, the value of 1 Hartree used in FHI-aims is :             27.211384500 eV

  Before relying on these values, please be sure to understand exactly which
  total energy value is referred to by a given number. Different objects may
  all carry the same name 'total energy'. Definitions:

  Total energy of the DFT / Hartree-Fock s.c.f. calculation:
  | Note that this energy does not include ANY quantities calculated after the
  | s.c.f. cycle, in particular not ANY RPA, MP2, etc. many-body perturbation terms.

  Final zero-broadening corrected energy:
  | For metallic systems only, a broadening of the occupation numbers at the Fermi
  | level can be extrapolated back to zero broadening by an electron-gas inspired
  | formula. For all systems that are not real metals, this value can be
  | meaningless and should be avoided.

------------------------------------------------------------------------------
  Methods described in the following list of references were used in this FHI-aims run.
  If you publish the results, please make sure to cite these reference if they apply.
  FHI-aims is an academic code, and for our developers (often, Ph.D. students
  and postdocs), scientific credit in the community is essential.
  Thank you for helping us!

  For any use of FHI-aims, please cite:

    Volker Blum, Ralf Gehrke, Felix Hanke, Paula Havu, Ville Havu,
    Xinguo Ren, Karsten Reuter, and Matthias Scheffler
    'Ab initio molecular simulations with numeric atom-centered orbitals'
    Computer Physics Communications 180, 2175-2196 (2009)
    http://doi.org/10.1016/j.cpc.2009.06.022


  For Hartree-Fock, hybrid functionals, or many-body perturbation theory used in your run, please cite:

    Xinguo Ren, Patrick Rinke, Volker Blum, Juergen Wieferink, Alex Tkatchenko,
    Andrea Sanfilippo, Karsten Reuter, and Matthias Scheffler,
    'Resolution-of-identity approach to Hartree-Fock, hybrid density functionals,
    RPA, MP2, and GW with numeric atom-centered orbital basis functions'
    New Journal of Physics 14, 053020 (2012).
    http://doi.org/10.1088/1367-2630/14/5/053020


  The ELSI infrastructure was used in your run to solve the Kohn-Sham electronic structure.
  Please check out http://elsi-interchange.org to learn more.
  If scalability is important for your project, please acknowledge ELSI by citing:

    V. W-z. Yu, F. Corsetti, A. Garcia, W. P. Huhn, M. Jacquelin, W. Jia,
    B. Lange, L. Lin, J. Lu, W. Mi, A. Seifitokaldani, A. Vazquez-Mayagoitia,
    C. Yang, H. Yang, and V. Blum
    'ELSI: A unified software interface for Kohn-Sham electronic structure solvers'
    Computer Physics Communications 222, 267-285 (2018).
    http://doi.org/10.1016/j.cpc.2017.09.007


  For the real-space grid partitioning and parallelization used in this calculation, please cite:

    Ville Havu, Volker Blum, Paula Havu, and Matthias Scheffler,
    'Efficient O(N) integration for all-electron electronic structure calculation'
    'using numerically tabulated basis functions'
    Journal of Computational Physics 228, 8367-8379 (2009).
    http://doi.org/10.1016/j.jcp.2009.08.008

  Of course, there are many other important community references, e.g., those cited in the
  above references. Our list is limited to references that describe implementations in the
  FHI-aims code. The reason is purely practical (length of this list) - please credit others as well.

 * A warning was issued further up regarding the accuracy of onsite integrals.
   An integral with a negative eigenvalue was among the flagged integrals.
   In most standard situations, this warning is probably harmless.
   If needed, this can be verified by adjusting the radial_multiplier flag.

 * Warning - angular integration grids had to be adjusted for use with RI_method 'V'.
 * Background: You are using an electronic structure method that requires RI_method 'V'
 * for the resolution of identity of the Coulomb operator. (See Ren et al.,
 * New J. Phys 2012 for details.) This method requires three-center integrations
 * to be carried out on FHI-aims' normal angular and radial integration grids.
 * (See FHI-aims CPC Blum et al. 2009, p. 2183 for grid details and references.)
 * One of the angular grids specified in your control.in file was not large
 * enough for the maximal angular momenta of orbital and product basis functions
 * for its species.
 * This can lead to atomic total energy errors which cancel in energy differences.
 * Effective Sep 22, 2014, we have changed the default behavior of the code to
 * simply 'upgrade' the angular grids internally to a safe setting in this case.
 * Please be sure to NOT mix total energies from before and after the change.

 *********************************************************************
   Your are running FHI-aims on many cores. To achieve optimal
   performance for your particular architecture, it might be necessary
   to tune the following compilation and calculation settings:
    * Choosing the right Scalapack and MPI Libraries for your
       architecture is essential. If in doubt, refer to the
       documentation or the sysadmin of your supercomputer.
    * Please review our documentation of Makefile choices, particularly
       for ELPA, in the manual.
    * Some of the following FHI-aims keywords or combination thereof
       may be helpful:
        - FHI-aims setting: use_local_index .true.
        - FHI-aims setting: load_balancing .true.
        - FHI-aims setting: use_alltoall .false.
   Be mindful that the usefulness of these keywords can depend on your
   actual run and on the actual computer you are using. Please check
   their description in the manual and perform specific benchmarks to
   determine what is optimal for your computer. More detailed
   information and examples can be found at:
 http://aimsclub.fhi-berlin.mpg.de/wiki/index.php/Large_scale_settings
 *********************************************************************

------------------------------------------------------------
          Leaving FHI-aims.
          Date     :  20240515, Time     :  153400.364

          Computational steps:
          | Number of self-consistency cycles          :           17
          | Number of SCF (re)initializations          :            1

          Detailed time accounting                     :  max(cpu_time)    wall_clock(cpu1)
          | Total time                                  :    38535.707 s       38676.811 s
          | Preparation time                            :        0.283 s           0.296 s
          | Boundary condition initalization            :        0.001 s           0.001 s
          | Grid partitioning                           :        0.085 s           0.084 s
          | Preloading free-atom quantities on grid     :        0.045 s           0.045 s
          | Free-atom superposition energy              :        0.002 s           0.002 s
          | Total time for integrations                 :        0.075 s           0.074 s
          | Product basis setup: Total time             :        0.000 s           0.000 s
          | Product basis: | 3-center integrations     :(       2.408 s)  (       2.419 s)
          | Product basis: | 2-center integrations     :(       0.156 s)  (       0.157 s)
          | Product basis: | 2-center linear algebra   :(       0.328 s)  (       0.329 s)
          | Product basis: | 3-center x 2-center       :(       0.784 s)  (       0.877 s)
          | Transforming ovlp_3fn to ovlp_3KS           :        0.465 s           0.355 s
          | Screened Coulomb matrix W_mn(iw)            :      607.170 s         609.544 s
          | Polarisability matrix Pi_PQ(iw)             :      188.020 s         188.020 s
          | Total time for GW calculation               :    38519.658 s       38660.317 s
          | GW self-energy (analytic cont.)             :     1321.970 s        1326.918 s
          | Contour def: | Solving qp equations         :      524.858 s         526.907 s
          | Contour def: | GW self-energy               :    37108.247 s       22189.588 s
          | Contour def: | Scr Coulomb matrix W_mn(w)   :    37036.726 s       22118.131 s
          | Contour def: | CD-WAC W_mn(w) and Pade      :        0.000 s           0.000 s
          | Contour def: | Scr aux Coulomb mat W_PQ(w)  :    36133.309 s       21367.002 s
          | Contour def: | Polarisability Pi_PQ(w)      :    18682.762 s       11221.750 s
          | Contour def: | Spectral function CD         :    34310.058 s       34432.952 s
          | Total time for solution of K.-S. equations  :        1.216 s           1.225 s
          | Total time for density update               :        0.643 s           0.659 s
          | Total time for mixing                       :        7.644 s           7.273 s
          | Total time for Hartree multipole update     :        0.107 s           0.106 s
          | Total time for Hartree multipole sum        :        0.207 s           0.212 s
          | Total time for total energy evaluation      :        0.009 s           0.021 s

          Partial memory accounting:
          | Residual value for overall tracked memory usage across tasks:     0.000000 MB (should be 0.000000 MB)
          | Peak values for overall tracked memory usage:
          |   Minimum:        0.940 MB (on task  779 after allocating gradient_basis_wave)
          |   Maximum:        2.627 MB (on task  716 after allocating gradient_basis_wave)
          |   Average:        2.088 MB
          | Largest tracked array allocation:
          |   Minimum:        0.299 MB (KS_eigenvector on task    4)
          |   Maximum:        0.812 MB (gradient_basis_wave on task  637)
          |   Average:        0.606 MB
          Note:  These values currently only include a subset of arrays which are explicitly tracked.
          The "true" memory usage will be greater.

          Have a nice day.
------------------------------------------------------------
