------------------------------------------------------------
          Invoking FHI-aims ...

          When using FHI-aims, please cite the following reference:

            Volker Blum, Ralf Gehrke, Felix Hanke, Paula Havu,
            Ville Havu, Xinguo Ren, Karsten Reuter, and Matthias Scheffler,
            'Ab Initio Molecular Simulations with Numeric Atom-Centered Orbitals',
            Computer Physics Communications 180, 2175-2196 (2009)

          In addition, many other developments in FHI-aims are likely important for
          your particular application. A partial list of references is given at the end of
          this file. Thank you for giving credit to the authors of these developments.

          For any questions about FHI-aims, please visit our slack channel at

            https://fhi-aims.slack.com

          and our main development and support site at

            https://aims-git.rz-berlin.mpg.de .

          The latter site, in particular, has a wiki to collect information, as well
          as an issue tracker to log discussions, suggest improvements, and report issues
          or bugs. https://aims-git.rz-berlin.mpg.de is also the main development site
          of the project and all new and updated code versions can be obtained there.
          Please send an email to aims-coordinators@fhi-berlin.mpg.de and we will add
          you to these sites. They are for you and everyone is welcome there.

------------------------------------------------------------



  Date     :  20240515, Time     :  123124.755
  Time zero on CPU 1             :   0.264696800000000E+01  s.
  Internal wall clock time zero  :           485008284.755  s.

  FHI-aims created a unique identifier for this run for later identification
  aims_uuid : DCF9DD16-56C7-4BB1-A2FD-FCCEDFD821F1

  Build configuration of the current instance of FHI-aims
  -------------------------------------------------------
  FHI-aims version      : 221103.1
  Commit number         : GITDIR-NOTFOUND
  CMake host system     : Linux-4.18.0-372.32.1.el8_6.x86_64
  CMake version         : 3.24.3
  Fortran compiler      : /opt/software/pc2/EB-SW/software/OpenMPI/4.1.4-GCC-12.2.0/bin/mpifort (GNU) version 12.2.0
  Fortran compiler flags: -O3 -ffree-line-length-none -fallow-argument-mismatch -march=znver3 -mprefer-vector-width=256
  C compiler            : /opt/software/pc2/EB-SW/software/GCCcore/12.2.0/bin/gcc (GNU) version 12.2.0
  C compiler flags      : -O3 -DNDEBUG -funroll-loops -march=znver3 -mprefer-vector-width=256
  HIP compiler          :
  HIP compiler flags    :
  HIP GPU arch          :
  Using MPI
  Using ScaLAPACK
  Using LibXC
  Using i-PI
  Using RLSY
  Linking against: /opt/software/pc2/EB-SW/software/ScaLAPACK/2.2.0-gompi-2022b-fb/lib/libscalapack.so
                   /opt/software/pc2/EB-SW/software/OpenBLAS/0.3.21-GCC-12.2.0/lib/libopenblas.so

  Using      128 parallel tasks.
  Task        0 on host n2cn0393.ab2021.local reporting.
  Task        1 on host n2cn0393.ab2021.local reporting.
  Task        2 on host n2cn0393.ab2021.local reporting.
  Task        3 on host n2cn0393.ab2021.local reporting.
  Task        4 on host n2cn0393.ab2021.local reporting.
  Task        5 on host n2cn0393.ab2021.local reporting.
  Task        6 on host n2cn0393.ab2021.local reporting.
  Task        7 on host n2cn0393.ab2021.local reporting.
  Task        8 on host n2cn0393.ab2021.local reporting.
  Task        9 on host n2cn0393.ab2021.local reporting.
  Task       10 on host n2cn0393.ab2021.local reporting.
  Task       11 on host n2cn0393.ab2021.local reporting.
  Task       12 on host n2cn0393.ab2021.local reporting.
  Task       13 on host n2cn0393.ab2021.local reporting.
  Task       14 on host n2cn0393.ab2021.local reporting.
  Task       15 on host n2cn0393.ab2021.local reporting.
  Task       16 on host n2cn0393.ab2021.local reporting.
  Task       17 on host n2cn0393.ab2021.local reporting.
  Task       18 on host n2cn0393.ab2021.local reporting.
  Task       19 on host n2cn0393.ab2021.local reporting.
  Task       20 on host n2cn0393.ab2021.local reporting.
  Task       21 on host n2cn0393.ab2021.local reporting.
  Task       22 on host n2cn0393.ab2021.local reporting.
  Task       23 on host n2cn0393.ab2021.local reporting.
  Task       24 on host n2cn0393.ab2021.local reporting.
  Task       25 on host n2cn0393.ab2021.local reporting.
  Task       26 on host n2cn0393.ab2021.local reporting.
  Task       27 on host n2cn0393.ab2021.local reporting.
  Task       28 on host n2cn0393.ab2021.local reporting.
  Task       29 on host n2cn0393.ab2021.local reporting.
  Task       30 on host n2cn0393.ab2021.local reporting.
  Task       31 on host n2cn0393.ab2021.local reporting.
  Task       32 on host n2cn0393.ab2021.local reporting.
  Task       33 on host n2cn0393.ab2021.local reporting.
  Task       34 on host n2cn0393.ab2021.local reporting.
  Task       35 on host n2cn0393.ab2021.local reporting.
  Task       36 on host n2cn0393.ab2021.local reporting.
  Task       37 on host n2cn0393.ab2021.local reporting.
  Task       38 on host n2cn0393.ab2021.local reporting.
  Task       39 on host n2cn0393.ab2021.local reporting.
  Task       40 on host n2cn0393.ab2021.local reporting.
  Task       41 on host n2cn0393.ab2021.local reporting.
  Task       42 on host n2cn0393.ab2021.local reporting.
  Task       43 on host n2cn0393.ab2021.local reporting.
  Task       44 on host n2cn0393.ab2021.local reporting.
  Task       45 on host n2cn0393.ab2021.local reporting.
  Task       46 on host n2cn0393.ab2021.local reporting.
  Task       47 on host n2cn0393.ab2021.local reporting.
  Task       48 on host n2cn0393.ab2021.local reporting.
  Task       49 on host n2cn0393.ab2021.local reporting.
  Task       50 on host n2cn0393.ab2021.local reporting.
  Task       51 on host n2cn0393.ab2021.local reporting.
  Task       52 on host n2cn0393.ab2021.local reporting.
  Task       53 on host n2cn0393.ab2021.local reporting.
  Task       54 on host n2cn0393.ab2021.local reporting.
  Task       55 on host n2cn0393.ab2021.local reporting.
  Task       56 on host n2cn0393.ab2021.local reporting.
  Task       57 on host n2cn0393.ab2021.local reporting.
  Task       58 on host n2cn0393.ab2021.local reporting.
  Task       59 on host n2cn0393.ab2021.local reporting.
  Task       60 on host n2cn0393.ab2021.local reporting.
  Task       61 on host n2cn0393.ab2021.local reporting.
  Task       62 on host n2cn0393.ab2021.local reporting.
  Task       63 on host n2cn0393.ab2021.local reporting.
  Task       64 on host n2cn0393.ab2021.local reporting.
  Task       65 on host n2cn0393.ab2021.local reporting.
  Task       66 on host n2cn0393.ab2021.local reporting.
  Task       67 on host n2cn0393.ab2021.local reporting.
  Task       68 on host n2cn0393.ab2021.local reporting.
  Task       69 on host n2cn0393.ab2021.local reporting.
  Task       70 on host n2cn0393.ab2021.local reporting.
  Task       71 on host n2cn0393.ab2021.local reporting.
  Task       72 on host n2cn0393.ab2021.local reporting.
  Task       73 on host n2cn0393.ab2021.local reporting.
  Task       74 on host n2cn0393.ab2021.local reporting.
  Task       75 on host n2cn0393.ab2021.local reporting.
  Task       76 on host n2cn0393.ab2021.local reporting.
  Task       77 on host n2cn0393.ab2021.local reporting.
  Task       78 on host n2cn0393.ab2021.local reporting.
  Task       79 on host n2cn0393.ab2021.local reporting.
  Task       80 on host n2cn0393.ab2021.local reporting.
  Task       81 on host n2cn0393.ab2021.local reporting.
  Task       82 on host n2cn0393.ab2021.local reporting.
  Task       83 on host n2cn0393.ab2021.local reporting.
  Task       84 on host n2cn0393.ab2021.local reporting.
  Task       85 on host n2cn0393.ab2021.local reporting.
  Task       86 on host n2cn0393.ab2021.local reporting.
  Task       87 on host n2cn0393.ab2021.local reporting.
  Task       88 on host n2cn0393.ab2021.local reporting.
  Task       89 on host n2cn0393.ab2021.local reporting.
  Task       90 on host n2cn0393.ab2021.local reporting.
  Task       91 on host n2cn0393.ab2021.local reporting.
  Task       92 on host n2cn0393.ab2021.local reporting.
  Task       93 on host n2cn0393.ab2021.local reporting.
  Task       94 on host n2cn0393.ab2021.local reporting.
  Task       95 on host n2cn0393.ab2021.local reporting.
  Task       96 on host n2cn0393.ab2021.local reporting.
  Task       97 on host n2cn0393.ab2021.local reporting.
  Task       98 on host n2cn0393.ab2021.local reporting.
  Task       99 on host n2cn0393.ab2021.local reporting.
  Task      100 on host n2cn0393.ab2021.local reporting.
  Task      101 on host n2cn0393.ab2021.local reporting.
  Task      102 on host n2cn0393.ab2021.local reporting.
  Task      103 on host n2cn0393.ab2021.local reporting.
  Task      104 on host n2cn0393.ab2021.local reporting.
  Task      105 on host n2cn0393.ab2021.local reporting.
  Task      106 on host n2cn0393.ab2021.local reporting.
  Task      107 on host n2cn0393.ab2021.local reporting.
  Task      108 on host n2cn0393.ab2021.local reporting.
  Task      109 on host n2cn0393.ab2021.local reporting.
  Task      110 on host n2cn0393.ab2021.local reporting.
  Task      111 on host n2cn0393.ab2021.local reporting.
  Task      112 on host n2cn0393.ab2021.local reporting.
  Task      113 on host n2cn0393.ab2021.local reporting.
  Task      114 on host n2cn0393.ab2021.local reporting.
  Task      115 on host n2cn0393.ab2021.local reporting.
  Task      116 on host n2cn0393.ab2021.local reporting.
  Task      117 on host n2cn0393.ab2021.local reporting.
  Task      118 on host n2cn0393.ab2021.local reporting.
  Task      119 on host n2cn0393.ab2021.local reporting.
  Task      120 on host n2cn0393.ab2021.local reporting.
  Task      121 on host n2cn0393.ab2021.local reporting.
  Task      122 on host n2cn0393.ab2021.local reporting.
  Task      123 on host n2cn0393.ab2021.local reporting.
  Task      124 on host n2cn0393.ab2021.local reporting.
  Task      125 on host n2cn0393.ab2021.local reporting.
  Task      126 on host n2cn0393.ab2021.local reporting.
  Task      127 on host n2cn0393.ab2021.local reporting.

  Performing system and environment tests:
  | Environment variable OMP_NUM_THREADS correctly set to 1.
  | Checking for ScaLAPACK...
  | Testing pdtran()...
  | All pdtran() tests passed.

  Obtaining array dimensions for all initial allocations:
  
  -----------------------------------------------------------------------
  Parsing control.in (first pass over file, find array dimensions only).
  The contents of control.in will be repeated verbatim below
  unless switched off by setting 'verbatim_writeout .false.' .
  in the first line of control.in .
  -----------------------------------------------------------------------
  
  #control.in header for database project
  #using def2-QVPZ basis for light and heavy elements
  
  #########################################
    xc                 pbe0
    qpe_calc           gw
    hybrid_xc_coeff 0.25
    #RI_method v
    #spin               collinear
    #default_initial_moment 0.01
    spin none
  
    anacon_type  1
    n_anacon_par 128
    frequency_points 600
    contour_def_gw   12 32
    contour_eta 0.004
    state_lower_limit 1
    state_upper_limit 500
    print_self_energy 21 -20.0 0.0
  
    relativistic none
    override_relativity .true.
    partition_type rho_r2
    density_update_method density_matrix
  
    calc_spectral_func -20.0 0.0 0.01
    spectral_func_state 21
  
  #########################################
    occupation_type    gaussian 0.000001
    mixer              pulay
      n_max_pulay        10
      charge_mix_param   0.2
    sc_accuracy_rho    1E-5
    sc_accuracy_eev    1E-5
    sc_accuracy_etot   1E-5
    sc_iter_limit      400
  #########################################
    prodbas_threshold  1.e-5
    KS_method          serial
    empty_states       25000
    # Do not check for overlapping xxx matrix
    # Not recommended
    # Necessary for large basis sets
    override_illconditioning .true.
    basis_threshold 1.e-5
  #########################################
  
  ################################################################################
  #
  #  FHI-aims code project
  #  VB, Fritz-Haber Institut, 2007
  #
  #  Suggested "safe" defaults for Cu atom (to be pasted into control.in file)
  #
  ################################################################################
    species        Cu
  #
      nucleus      29
      mass         63.546
  #
      l_hartree           8
  #
      cut_pot      4.0  2.0  1.0
      basis_dep_cutoff    0.d0
  #
      radial_base        53 7.0
      radial_multiplier  2
      angular_grids       specified
        division   0.7212  110
        division   0.9907  194
        division   1.1992  302
        division   1.6856  434
        division   1.8201  590
  #      division   1.8921  770
  #      division   2.4078  974
  #      outer_grid   974
        outer_grid   590
  ################################################################################
  #
  #  Definition of "minimal" basis
  #
  ################################################################################
  #     valence basis states
      valence      4  s   1.
      valence      3  p   6.
      valence      3  d  10.
  #     ion occupancy
      ion_occ      4  s   0.
      ion_occ      3  p   6.
      ion_occ      3  d   9.
  
  
              # The default minimal basis should not be included
              include_min_basis .false.
              # Use spherical functions?
              pure_gauss .true.
              # Cu def2-QZVP
  gaussian 0 11
5056467.8898000              0.93501916365E-05
 759457.8383500              0.72323443222E-04
 173524.8849700              0.37813833845E-03
  49327.2599880              0.15870129862E-02
  16144.1499300              0.57220685294E-02
   5844.5964680              0.18268390048E-01
   2284.6812739              0.51893720863E-01
    948.88232514             0.12796192366
    413.66215455             0.25629891036
    187.38942059             0.36064416138
     86.872771648            0.26833664660
  gaussian 0 4
   1744.0598287              0.88587079141E-02
    540.93295513             0.86522785813E-01
    207.99736224             0.38932285258
     90.475793036            0.69777199902
  gaussian 0 1 38.869687699
  gaussian 0 1 18.974829147
  gaussian 0 1 9.0953644635
  gaussian 0 1 3.8330020174
  gaussian 0 1 1.8198891499
  gaussian 0 1 0.79068098393
  gaussian 0 1 0.14914142106
  gaussian 0 1 0.72448090592E-01
  gaussian 0 1 0.30959925368E-01
  gaussian 1 9
   9720.4614555              0.17828803512E-03
   2302.7557452              0.15678108633E-02
    747.48498314             0.87470094509E-02
    285.00132623             0.36044549301E-01
    120.15121609             0.11287209053
     54.145261156            0.25647377341
     25.406033563            0.38512918379
     12.224331465            0.30316512356
      5.7638720668           0.81677218969E-01
  gaussian 1 5
     83.210837217           -0.63530359993E-02
     29.694779129           -0.31383834666E-01
      5.8248516206           0.30930039753
      2.6746181180           0.63583925938
      1.1841836775           0.50946045967
  gaussian 1 1 0.48043583535
  gaussian 1 1 0.1870000
  gaussian 1 1 0.0762000
  gaussian 1 1 0.0310000
  gaussian 2 6
    249.54025080             0.12432881244E-02
     74.683914534            0.10456901995E-01
     28.392717116            0.46451241249E-01
     11.955968430            0.13541359729
      5.3210744624           0.25852899978
      2.3661189459           0.33168127635
  gaussian 2 1 1.0131863994
  gaussian 2 1 0.40710035940
  gaussian 2 1 0.14742541032
  gaussian 2 1 0.71E-01
  gaussian 3 1 6.9620000
  gaussian 3 1 2.2330000
  gaussian 3 1 0.7040000
  gaussian 4 1 3.2450000
  
  ################################################################################
  #
  #  FHI-aims code project
  #  VB, Fritz-Haber Institut, 2007
  #
  #  Suggested "safe" defaults for C atom (to be pasted into control.in file)
  #
  ################################################################################
    species        C
  #     global species definitions
      nucleus             6
      mass                12.0107
  #
      l_hartree           8
  #
      cut_pot             4.0  2.0  1.0
      basis_dep_cutoff    0.d0
  #
      radial_base         34 7.0
      radial_multiplier   2
      angular_grids specified
        division   0.4031  110
        division   0.5191  194
        division   0.6263  302
        division   0.8150  434
        division   0.8501  590
  #     division   0.9238  770
  #     division   1.6076  974
  #     outer_grid  974
       outer_grid 590
  ################################################################################
  #
  #  Definition of "minimal" basis
  #
  ################################################################################
  #     valence basis states
      valence      2  s   2.
      valence      2  p   2.
  #     ion occupancy
      ion_occ      2  s   1.
      ion_occ      2  p   1.
  
              # The default minimal basis should not be included
              include_min_basis .false.
              # Use spherical functions?
              pure_gauss .true.
              # C def2-QZVP
  gaussian 0 8
  67025.0710290              0.38736308501E-04
  10039.9865380              0.30107917575E-03
   2284.9316911              0.15787918095E-02
    647.14122130             0.66087087195E-02
    211.09472335             0.23367123250E-01
     76.177643862            0.70420716898E-01
     29.633839163            0.17360344953
     12.187785081            0.32292305648
  gaussian 0 2
     53.026006299            0.74897404492E-01
     15.258502776            0.76136220983
  gaussian 0 1 5.2403957464
  gaussian 0 1 2.2905022379
  gaussian 0 1 0.69673283006
  gaussian 0 1 0.27599337363
  gaussian 0 1 0.10739884389
  gaussian 1 5
    105.12555082             0.84647553844E-03
     24.884461066            0.66274038534E-02
      7.8637230826           0.30120390419E-01
      2.8407001835           0.99951435476E-01
      1.1227137335           0.23826299282
  gaussian 1 1 0.46050725555
  gaussian 1 1 0.18937530913
  gaussian 1 1 0.75983791611E-01
  gaussian 2 1 1.84800000
  gaussian 2 1 0.64900000
  gaussian 2 1 0.22800000
  gaussian 3 1 1.41900000
  gaussian 3 1 0.48500000
  gaussian 4 1 1.01100000
  
  ################################################################################
  #
  #  FHI-aims code project
  #  VB, Fritz-Haber Institut, 2007
  #
  #  Suggested "safe" defaults for N atom (to be pasted into control.in file)
  #
  ################################################################################
    species        N
  #     global species definitions
      nucleus             7
      mass                14.0067
  #
      l_hartree           8
  #
      cut_pot             4.0  2.0  1.0
      basis_dep_cutoff    0.d0
  #
      radial_base         35 7.0
      radial_multiplier   2
      angular_grids       specified
        division   0.3806  110
        division   0.5126  194
        division   0.5309  302
        division   0.7632  434
  #      division   0.7874  770
  #      division   3.0496  974
  #      outer_grid  974
        outer_grid  590
  ################################################################################
  #
  #  Definition of "minimal" basis
  #
  ################################################################################
  #     valence basis states
      valence      2  s   2.
      valence      2  p   3.
  #     ion occupancy
      ion_occ      2  s   1.
      ion_occ      2  p   2.
  
  
              # The default minimal basis should not be included
              include_min_basis .false.
              # Use spherical functions?
              pure_gauss .true.
              # N def2-QZVP
  gaussian 0 8
  90726.8892100              0.39257887368E-04
  13590.5288010              0.30513316455E-03
   3092.9883781              0.16000560446E-02
    875.99876362             0.66982937306E-02
    285.74469982             0.23690078765E-01
    103.11913417             0.71455405268E-01
     40.128556777            0.17632774876
     16.528095704            0.32677592815
  gaussian 0 2
     69.390960983            0.80052094386E-01
     20.428200596            0.78268063538
  gaussian 0 1 7.1292587972
  gaussian 0 1 3.1324304893
  gaussian 0 1 0.98755778723
  gaussian 0 1 0.38765721307
  gaussian 0 1 0.14909883075
  gaussian 1 5
    150.05742670            -0.86216165986E-03
     35.491599483           -0.68571273236E-02
     11.247864223           -0.31795688855E-01
      4.0900305195          -0.10537396822
      1.6220573146          -0.24519708041
  gaussian 1 1 0.66442261530
  gaussian 1 1 0.27099770070
  gaussian 1 1 0.10688749984
  gaussian 2 1 2.83700000
  gaussian 2 1 0.96800000
  gaussian 2 1 0.33500000
  gaussian 3 1 2.02700000
  gaussian 3 1 0.68500000
  gaussian 4 1 1.42700000
  
  
  
  -----------------------------------------------------------------------
  Completed first pass over input file control.in .
  -----------------------------------------------------------------------
  
  
  -----------------------------------------------------------------------
  Parsing geometry.in (first pass over file, find array dimensions only).
  The contents of geometry.in will be repeated verbatim below
  unless switched off by setting 'verbatim_writeout .false.' .
  in the first line of geometry.in .
  -----------------------------------------------------------------------
  
  atom 0.0000 0.0000 0.0000 C
  atom 0.0000 0.0000 1.158  N
  atom 0.0000 0.0000 -1.832 Cu
  
  -----------------------------------------------------------------------
  Completed first pass over input file geometry.in .
  -----------------------------------------------------------------------
  

  Basic array size parameters:
  | Number of species                 :        3
  | Number of atoms                   :        3
  | Max. basis fn. angular momentum   :        4
  | Max. atomic/ionic basis occupied n:        4
  | Max. number of basis fn. types    :        1
  | Max. radial fns per species/type  :       36
  | Max. logarithmic grid size        :     1406
  | Max. radial integration grid size :      107
  | Max. angular integration grid size:      590
  | Max. angular grid division number :        8
  | Radial grid for Hartree potential :     1406
  | Number of spin channels           :        1

------------------------------------------------------------
          Reading file control.in.
------------------------------------------------------------
  XC: Using hybrid-PBE0 functionals.
  GW quasiparticle calculation of excited states will be started after the DFT/HF calculation.
  hybrid_xc_coeff: Mixing coefficient for hybrid-functional exact exchange modified to         0.25000000 .
  * WARNING: This change modifies the chosen exchange-correlation functional (keyword 'xc')
  * from its literature definition. Be sure to NEVER include such a line in any default control.in files!
  Spin treatment: No spin polarisation.
  Using Pade approximation for analytical continuation.
  Number of fitting parameters for analytical continuation :    128
  Number of frequency points used for the self-energy calculation:    600
  Contour deformation in GW for the levels:     12     to      32
  Broadening parameter eta:       0.004000
  Lower limit of the eigenstates for the self-energy correction :      1
  Upper limit of the eigenstates for the self-energy correction :    500
  Non-relativistic treatment of kinetic energy.
  override_relativity: Explicitly overriding any built-in relativity checks.
  If you use this flag, you should really know what you are doing.
  Partition function in integrals calculations: rho / r^2
  Spectral function will be calculated from:   -20.000   to        0.000  eV
  Occupation type: Gaussian broadening, width =   0.100000E-05 eV.
  Using pulay charge density mixing.
  Pulay mixing - number of memorized iterations:   10
  Charge density mixing - mixing parameter:     0.2000
  Convergence accuracy of self-consistent charge density:  0.1000E-04
  Convergence accuracy of sum of eigenvalues:  0.1000E-04
  Convergence accuracy of total energy:  0.1000E-04
  Maximum number of s.-c. iterations  :   400
  Threshold for auxiliary basis singularities:  0.1000E-04
  Kohn-Sham eigenvalues and eigenfunctions calculated by LAPACK via ELSI.
  Number of empty states per atom:    25000
  override_illconditioning: Explicitly overriding any built-in checks for an ill-conditioned overlap matrix.
  *** WARNING: If you use this flag, you should really know what you are doing.
  *** DO NOT keep this flag set by default in all your control.in files.
  Threshold for basis singularities:  0.1000E-04

  Reading configuration options for species Cu                  .
  | Found nuclear charge :  29.0000
  | Found atomic mass :    63.545999999999999      amu
  | Found l_max for Hartree potential  :   8
  | Found cutoff potl. onset [A], width [A], scale factor :    4.00000    2.00000    1.00000
  | Threshold for basis-dependent cutoff potential is   0.000000E+00
  | Found data for basic radial integration grid :    53 points, outermost radius =    7.000 A
  | Found multiplier for basic radial grid :   2
  | Found angular grid specification: user-specified.
  | Specified grid contains     6 separate shells.
  | Check grid settings after all constraints further below.
  | Found free-atom valence shell :  4 s   1.000
  | Found free-atom valence shell :  3 p   6.000
  | Found free-atom valence shell :  3 d  10.000
  | No ionic wave fns used. Skipping ion_occ.
  | No ionic wave fns used. Skipping ion_occ.
  | No ionic wave fns used. Skipping ion_occ.
  | Found request to include minimal basis fns. :     F
  | Found request to include pure gaussian fns. :     T
  | Found contracted cartesian Gaussian basis function :  L = 0 ,  11 elementary Gaussians:
  |   alpha = 0.505647E+07 weight = 0.935019E-05
  |   alpha = 0.759458E+06 weight = 0.723234E-04
  |   alpha = 0.173525E+06 weight = 0.378138E-03
  |   alpha = 0.493273E+05 weight = 0.158701E-02
  |   alpha = 0.161441E+05 weight = 0.572207E-02
  |   alpha = 0.584460E+04 weight = 0.182684E-01
  |   alpha = 0.228468E+04 weight = 0.518937E-01
  |   alpha = 0.948882E+03 weight = 0.127962E+00
  |   alpha = 0.413662E+03 weight = 0.256299E+00
  |   alpha = 0.187389E+03 weight = 0.360644E+00
  |   alpha = 0.868728E+02 weight = 0.268337E+00
  |   In terms of angular momentum, this radial function adds: 
  |     1 s-type basis function
  | Found contracted cartesian Gaussian basis function :  L = 0 ,   4 elementary Gaussians:
  |   alpha = 0.174406E+04 weight = 0.885871E-02
  |   alpha = 0.540933E+03 weight = 0.865228E-01
  |   alpha = 0.207997E+03 weight = 0.389323E+00
  |   alpha = 0.904758E+02 weight = 0.697772E+00
  |   In terms of angular momentum, this radial function adds: 
  |     1 s-type basis function
  | Found primitive cartesian Gaussian basis function :  0 0.388697E+02
  |   In terms of angular momentum, this radial function adds: 
  |     1 s-type basis function
  | Found primitive cartesian Gaussian basis function :  0 0.189748E+02
  |   In terms of angular momentum, this radial function adds: 
  |     1 s-type basis function
  | Found primitive cartesian Gaussian basis function :  0 0.909536E+01
  |   In terms of angular momentum, this radial function adds: 
  |     1 s-type basis function
  | Found primitive cartesian Gaussian basis function :  0 0.383300E+01
  |   In terms of angular momentum, this radial function adds: 
  |     1 s-type basis function
  | Found primitive cartesian Gaussian basis function :  0 0.181989E+01
  |   In terms of angular momentum, this radial function adds: 
  |     1 s-type basis function
  | Found primitive cartesian Gaussian basis function :  0 0.790681E+00
  |   In terms of angular momentum, this radial function adds: 
  |     1 s-type basis function
  | Found primitive cartesian Gaussian basis function :  0 0.149141E+00
  |   In terms of angular momentum, this radial function adds: 
  |     1 s-type basis function
  | Found primitive cartesian Gaussian basis function :  0 0.724481E-01
  |   In terms of angular momentum, this radial function adds: 
  |     1 s-type basis function
  | Found primitive cartesian Gaussian basis function :  0 0.309599E-01
  |   In terms of angular momentum, this radial function adds: 
  |     1 s-type basis function
  | Found contracted cartesian Gaussian basis function :  L = 1 ,   9 elementary Gaussians:
  |   alpha = 0.972046E+04 weight = 0.178288E-03
  |   alpha = 0.230276E+04 weight = 0.156781E-02
  |   alpha = 0.747485E+03 weight = 0.874701E-02
  |   alpha = 0.285001E+03 weight = 0.360445E-01
  |   alpha = 0.120151E+03 weight = 0.112872E+00
  |   alpha = 0.541453E+02 weight = 0.256474E+00
  |   alpha = 0.254060E+02 weight = 0.385129E+00
  |   alpha = 0.122243E+02 weight = 0.303165E+00
  |   alpha = 0.576387E+01 weight = 0.816772E-01
  |   In terms of angular momentum, this radial function adds: 
  |     3 p-type basis functions
  | Found contracted cartesian Gaussian basis function :  L = 1 ,   5 elementary Gaussians:
  |   alpha = 0.832108E+02 weight = -.635304E-02
  |   alpha = 0.296948E+02 weight = -.313838E-01
  |   alpha = 0.582485E+01 weight = 0.309300E+00
  |   alpha = 0.267462E+01 weight = 0.635839E+00
  |   alpha = 0.118418E+01 weight = 0.509460E+00
  |   In terms of angular momentum, this radial function adds: 
  |     3 p-type basis functions
  | Found primitive cartesian Gaussian basis function :  1 0.480436E+00
  |   In terms of angular momentum, this radial function adds: 
  |     3 p-type basis functions
  | Found primitive cartesian Gaussian basis function :  1 0.187000E+00
  |   In terms of angular momentum, this radial function adds: 
  |     3 p-type basis functions
  | Found primitive cartesian Gaussian basis function :  1 0.762000E-01
  |   In terms of angular momentum, this radial function adds: 
  |     3 p-type basis functions
  | Found primitive cartesian Gaussian basis function :  1 0.310000E-01
  |   In terms of angular momentum, this radial function adds: 
  |     3 p-type basis functions
  | Found contracted cartesian Gaussian basis function :  L = 2 ,   6 elementary Gaussians:
  |   alpha = 0.249540E+03 weight = 0.124329E-02
  |   alpha = 0.746839E+02 weight = 0.104569E-01
  |   alpha = 0.283927E+02 weight = 0.464512E-01
  |   alpha = 0.119560E+02 weight = 0.135414E+00
  |   alpha = 0.532107E+01 weight = 0.258529E+00
  |   alpha = 0.236612E+01 weight = 0.331681E+00
  |   In terms of angular momentum, this radial function adds: 
  |     5 d-type basis functions
  | Found primitive cartesian Gaussian basis function :  2 0.101319E+01
  |   In terms of angular momentum, this radial function adds: 
  |     5 d-type basis functions
  | Found primitive cartesian Gaussian basis function :  2 0.407100E+00
  |   In terms of angular momentum, this radial function adds: 
  |     5 d-type basis functions
  | Found primitive cartesian Gaussian basis function :  2 0.147425E+00
  |   In terms of angular momentum, this radial function adds: 
  |     5 d-type basis functions
  | Found primitive cartesian Gaussian basis function :  2 0.710000E-01
  |   In terms of angular momentum, this radial function adds: 
  |     5 d-type basis functions
  | Found primitive cartesian Gaussian basis function :  3 0.696200E+01
  |   In terms of angular momentum, this radial function adds: 
  |     7 f-type basis functions
  | Found primitive cartesian Gaussian basis function :  3 0.223300E+01
  |   In terms of angular momentum, this radial function adds: 
  |     7 f-type basis functions
  | Found primitive cartesian Gaussian basis function :  3 0.704000E+00
  |   In terms of angular momentum, this radial function adds: 
  |     7 f-type basis functions
  | Found primitive cartesian Gaussian basis function :  4 0.324500E+01
  |   In terms of angular momentum, this radial function adds: 
  |     9 g-type basis functions
  Species Cu                  : Missing cutoff potential type.
  Defaulting to exp(1/x)/(1-x)^2 type cutoff potential.
  Species Cu: No 'logarithmic' tag. Using default grid for free atom:
  | Default logarithmic grid data [bohr] : 0.1000E-03 0.1000E+03 0.1012E+01
  Species Cu: On-site basis accuracy parameter (for Gram-Schmidt orthonormalisation) not specified.
  Using default value basis_acc =  0.1000000E-03.
  Species Cu                  : Using default innermost maximum threshold i_radial=  2 for radial functions.
  Species Cu                  : Default cutoff onset for free atom density etc. is infinite
  since the product basis is used (hybrid functionals, Hartree-Fock, GW etc.).
  Species Cu                  : Basic radial grid will be enhanced according to radial_multiplier =   2, to contain   107 grid points.

  Reading configuration options for species C                   .
  | Found nuclear charge :   6.0000
  | Found atomic mass :    12.010700000000000      amu
  | Found l_max for Hartree potential  :   8
  | Found cutoff potl. onset [A], width [A], scale factor :    4.00000    2.00000    1.00000
  | Threshold for basis-dependent cutoff potential is   0.000000E+00
  | Found data for basic radial integration grid :    34 points, outermost radius =    7.000 A
  | Found multiplier for basic radial grid :   2
  | Found angular grid specification: user-specified.
  | Specified grid contains     6 separate shells.
  | Check grid settings after all constraints further below.
  | Found free-atom valence shell :  2 s   2.000
  | Found free-atom valence shell :  2 p   2.000
  | No ionic wave fns used. Skipping ion_occ.
  | No ionic wave fns used. Skipping ion_occ.
  | Found request to include minimal basis fns. :     F
  | Found request to include pure gaussian fns. :     T
  | Found contracted cartesian Gaussian basis function :  L = 0 ,   8 elementary Gaussians:
  |   alpha = 0.670251E+05 weight = 0.387363E-04
  |   alpha = 0.100400E+05 weight = 0.301079E-03
  |   alpha = 0.228493E+04 weight = 0.157879E-02
  |   alpha = 0.647141E+03 weight = 0.660871E-02
  |   alpha = 0.211095E+03 weight = 0.233671E-01
  |   alpha = 0.761776E+02 weight = 0.704207E-01
  |   alpha = 0.296338E+02 weight = 0.173603E+00
  |   alpha = 0.121878E+02 weight = 0.322923E+00
  |   In terms of angular momentum, this radial function adds: 
  |     1 s-type basis function
  | Found contracted cartesian Gaussian basis function :  L = 0 ,   2 elementary Gaussians:
  |   alpha = 0.530260E+02 weight = 0.748974E-01
  |   alpha = 0.152585E+02 weight = 0.761362E+00
  |   In terms of angular momentum, this radial function adds: 
  |     1 s-type basis function
  | Found primitive cartesian Gaussian basis function :  0 0.524040E+01
  |   In terms of angular momentum, this radial function adds: 
  |     1 s-type basis function
  | Found primitive cartesian Gaussian basis function :  0 0.229050E+01
  |   In terms of angular momentum, this radial function adds: 
  |     1 s-type basis function
  | Found primitive cartesian Gaussian basis function :  0 0.696733E+00
  |   In terms of angular momentum, this radial function adds: 
  |     1 s-type basis function
  | Found primitive cartesian Gaussian basis function :  0 0.275993E+00
  |   In terms of angular momentum, this radial function adds: 
  |     1 s-type basis function
  | Found primitive cartesian Gaussian basis function :  0 0.107399E+00
  |   In terms of angular momentum, this radial function adds: 
  |     1 s-type basis function
  | Found contracted cartesian Gaussian basis function :  L = 1 ,   5 elementary Gaussians:
  |   alpha = 0.105126E+03 weight = 0.846476E-03
  |   alpha = 0.248845E+02 weight = 0.662740E-02
  |   alpha = 0.786372E+01 weight = 0.301204E-01
  |   alpha = 0.284070E+01 weight = 0.999514E-01
  |   alpha = 0.112271E+01 weight = 0.238263E+00
  |   In terms of angular momentum, this radial function adds: 
  |     3 p-type basis functions
  | Found primitive cartesian Gaussian basis function :  1 0.460507E+00
  |   In terms of angular momentum, this radial function adds: 
  |     3 p-type basis functions
  | Found primitive cartesian Gaussian basis function :  1 0.189375E+00
  |   In terms of angular momentum, this radial function adds: 
  |     3 p-type basis functions
  | Found primitive cartesian Gaussian basis function :  1 0.759838E-01
  |   In terms of angular momentum, this radial function adds: 
  |     3 p-type basis functions
  | Found primitive cartesian Gaussian basis function :  2 0.184800E+01
  |   In terms of angular momentum, this radial function adds: 
  |     5 d-type basis functions
  | Found primitive cartesian Gaussian basis function :  2 0.649000E+00
  |   In terms of angular momentum, this radial function adds: 
  |     5 d-type basis functions
  | Found primitive cartesian Gaussian basis function :  2 0.228000E+00
  |   In terms of angular momentum, this radial function adds: 
  |     5 d-type basis functions
  | Found primitive cartesian Gaussian basis function :  3 0.141900E+01
  |   In terms of angular momentum, this radial function adds: 
  |     7 f-type basis functions
  | Found primitive cartesian Gaussian basis function :  3 0.485000E+00
  |   In terms of angular momentum, this radial function adds: 
  |     7 f-type basis functions
  | Found primitive cartesian Gaussian basis function :  4 0.101100E+01
  |   In terms of angular momentum, this radial function adds: 
  |     9 g-type basis functions
  Species C                   : Missing cutoff potential type.
  Defaulting to exp(1/x)/(1-x)^2 type cutoff potential.
  Species C : No 'logarithmic' tag. Using default grid for free atom:
  | Default logarithmic grid data [bohr] : 0.1000E-03 0.1000E+03 0.1012E+01
  Species C : On-site basis accuracy parameter (for Gram-Schmidt orthonormalisation) not specified.
  Using default value basis_acc =  0.1000000E-03.
  Species C                   : Using default innermost maximum threshold i_radial=  2 for radial functions.
  Species C                   : Default cutoff onset for free atom density etc. is infinite
  since the product basis is used (hybrid functionals, Hartree-Fock, GW etc.).
  Species C                   : Basic radial grid will be enhanced according to radial_multiplier =   2, to contain    69 grid points.

  Reading configuration options for species N                   .
  | Found nuclear charge :   7.0000
  | Found atomic mass :    14.006700000000000      amu
  | Found l_max for Hartree potential  :   8
  | Found cutoff potl. onset [A], width [A], scale factor :    4.00000    2.00000    1.00000
  | Threshold for basis-dependent cutoff potential is   0.000000E+00
  | Found data for basic radial integration grid :    35 points, outermost radius =    7.000 A
  | Found multiplier for basic radial grid :   2
  | Found angular grid specification: user-specified.
  | Specified grid contains     5 separate shells.
  | Check grid settings after all constraints further below.
  | Found free-atom valence shell :  2 s   2.000
  | Found free-atom valence shell :  2 p   3.000
  | No ionic wave fns used. Skipping ion_occ.
  | No ionic wave fns used. Skipping ion_occ.
  | Found request to include minimal basis fns. :     F
  | Found request to include pure gaussian fns. :     T
  | Found contracted cartesian Gaussian basis function :  L = 0 ,   8 elementary Gaussians:
  |   alpha = 0.907269E+05 weight = 0.392579E-04
  |   alpha = 0.135905E+05 weight = 0.305133E-03
  |   alpha = 0.309299E+04 weight = 0.160006E-02
  |   alpha = 0.875999E+03 weight = 0.669829E-02
  |   alpha = 0.285745E+03 weight = 0.236901E-01
  |   alpha = 0.103119E+03 weight = 0.714554E-01
  |   alpha = 0.401286E+02 weight = 0.176328E+00
  |   alpha = 0.165281E+02 weight = 0.326776E+00
  |   In terms of angular momentum, this radial function adds: 
  |     1 s-type basis function
  | Found contracted cartesian Gaussian basis function :  L = 0 ,   2 elementary Gaussians:
  |   alpha = 0.693910E+02 weight = 0.800521E-01
  |   alpha = 0.204282E+02 weight = 0.782681E+00
  |   In terms of angular momentum, this radial function adds: 
  |     1 s-type basis function
  | Found primitive cartesian Gaussian basis function :  0 0.712926E+01
  |   In terms of angular momentum, this radial function adds: 
  |     1 s-type basis function
  | Found primitive cartesian Gaussian basis function :  0 0.313243E+01
  |   In terms of angular momentum, this radial function adds: 
  |     1 s-type basis function
  | Found primitive cartesian Gaussian basis function :  0 0.987558E+00
  |   In terms of angular momentum, this radial function adds: 
  |     1 s-type basis function
  | Found primitive cartesian Gaussian basis function :  0 0.387657E+00
  |   In terms of angular momentum, this radial function adds: 
  |     1 s-type basis function
  | Found primitive cartesian Gaussian basis function :  0 0.149099E+00
  |   In terms of angular momentum, this radial function adds: 
  |     1 s-type basis function
  | Found contracted cartesian Gaussian basis function :  L = 1 ,   5 elementary Gaussians:
  |   alpha = 0.150057E+03 weight = -.862162E-03
  |   alpha = 0.354916E+02 weight = -.685713E-02
  |   alpha = 0.112479E+02 weight = -.317957E-01
  |   alpha = 0.409003E+01 weight = -.105374E+00
  |   alpha = 0.162206E+01 weight = -.245197E+00
  |   In terms of angular momentum, this radial function adds: 
  |     3 p-type basis functions
  | Found primitive cartesian Gaussian basis function :  1 0.664423E+00
  |   In terms of angular momentum, this radial function adds: 
  |     3 p-type basis functions
  | Found primitive cartesian Gaussian basis function :  1 0.270998E+00
  |   In terms of angular momentum, this radial function adds: 
  |     3 p-type basis functions
  | Found primitive cartesian Gaussian basis function :  1 0.106887E+00
  |   In terms of angular momentum, this radial function adds: 
  |     3 p-type basis functions
  | Found primitive cartesian Gaussian basis function :  2 0.283700E+01
  |   In terms of angular momentum, this radial function adds: 
  |     5 d-type basis functions
  | Found primitive cartesian Gaussian basis function :  2 0.968000E+00
  |   In terms of angular momentum, this radial function adds: 
  |     5 d-type basis functions
  | Found primitive cartesian Gaussian basis function :  2 0.335000E+00
  |   In terms of angular momentum, this radial function adds: 
  |     5 d-type basis functions
  | Found primitive cartesian Gaussian basis function :  3 0.202700E+01
  |   In terms of angular momentum, this radial function adds: 
  |     7 f-type basis functions
  | Found primitive cartesian Gaussian basis function :  3 0.685000E+00
  |   In terms of angular momentum, this radial function adds: 
  |     7 f-type basis functions
  | Found primitive cartesian Gaussian basis function :  4 0.142700E+01
  |   In terms of angular momentum, this radial function adds: 
  |     9 g-type basis functions
  Species N                   : Missing cutoff potential type.
  Defaulting to exp(1/x)/(1-x)^2 type cutoff potential.
  Species N : No 'logarithmic' tag. Using default grid for free atom:
  | Default logarithmic grid data [bohr] : 0.1000E-03 0.1000E+03 0.1012E+01
  Species N : On-site basis accuracy parameter (for Gram-Schmidt orthonormalisation) not specified.
  Using default value basis_acc =  0.1000000E-03.
  Species N                   : Using default innermost maximum threshold i_radial=  2 for radial functions.
  Species N                   : Default cutoff onset for free atom density etc. is infinite
  since the product basis is used (hybrid functionals, Hartree-Fock, GW etc.).
  Species N                   : Basic radial grid will be enhanced according to radial_multiplier =   2, to contain    71 grid points.

  Finished reading input file 'control.in'.

------------------------------------------------------------


------------------------------------------------------------
          Reading geometry description geometry.in.
------------------------------------------------------------
  | The smallest distance between any two atoms is         1.15800000 AA.
  | The first atom of this pair is atom number                      1 .
  | The second atom of this pair is atom number                     2 .
  Input structure read successfully.
  The structure contains        3 atoms,  and a total of         42.000 electrons.

  Input geometry:
  | No unit cell requested.
  | Atomic structure:
  |       Atom                x [A]            y [A]            z [A]
  |    1: Species C             0.00000000        0.00000000        0.00000000
  |    2: Species N             0.00000000        0.00000000        1.15800000
  |    3: Species Cu            0.00000000        0.00000000       -1.83200000


  Finished reading input file 'geometry.in'.



  Consistency checks for stacksize environment parameter are next.

  | Maximum stacksize for task 0: unlimited
  | Maximum stacksize for task 1: unlimited
  | Maximum stacksize for task 2: unlimited
  | Maximum stacksize for task 3: unlimited
  | Maximum stacksize for task 4: unlimited
  | Maximum stacksize for task 5: unlimited
  | Maximum stacksize for task 6: unlimited
  | Maximum stacksize for task 7: unlimited
  | Maximum stacksize for task 8: unlimited
  | Maximum stacksize for task 9: unlimited
  | Maximum stacksize for task 10: unlimited
  | Maximum stacksize for task 11: unlimited
  | Maximum stacksize for task 12: unlimited
  | Maximum stacksize for task 13: unlimited
  | Maximum stacksize for task 14: unlimited
  | Maximum stacksize for task 15: unlimited
  | Maximum stacksize for task 16: unlimited
  | Maximum stacksize for task 17: unlimited
  | Maximum stacksize for task 18: unlimited
  | Maximum stacksize for task 19: unlimited
  | Maximum stacksize for task 20: unlimited
  | Maximum stacksize for task 21: unlimited
  | Maximum stacksize for task 22: unlimited
  | Maximum stacksize for task 23: unlimited
  | Maximum stacksize for task 24: unlimited
  | Maximum stacksize for task 25: unlimited
  | Maximum stacksize for task 26: unlimited
  | Maximum stacksize for task 27: unlimited
  | Maximum stacksize for task 28: unlimited
  | Maximum stacksize for task 29: unlimited
  | Maximum stacksize for task 30: unlimited
  | Maximum stacksize for task 31: unlimited
  | Maximum stacksize for task 32: unlimited
  | Maximum stacksize for task 33: unlimited
  | Maximum stacksize for task 34: unlimited
  | Maximum stacksize for task 35: unlimited
  | Maximum stacksize for task 36: unlimited
  | Maximum stacksize for task 37: unlimited
  | Maximum stacksize for task 38: unlimited
  | Maximum stacksize for task 39: unlimited
  | Maximum stacksize for task 40: unlimited
  | Maximum stacksize for task 41: unlimited
  | Maximum stacksize for task 42: unlimited
  | Maximum stacksize for task 43: unlimited
  | Maximum stacksize for task 44: unlimited
  | Maximum stacksize for task 45: unlimited
  | Maximum stacksize for task 46: unlimited
  | Maximum stacksize for task 47: unlimited
  | Maximum stacksize for task 48: unlimited
  | Maximum stacksize for task 49: unlimited
  | Maximum stacksize for task 50: unlimited
  | Maximum stacksize for task 51: unlimited
  | Maximum stacksize for task 52: unlimited
  | Maximum stacksize for task 53: unlimited
  | Maximum stacksize for task 54: unlimited
  | Maximum stacksize for task 55: unlimited
  | Maximum stacksize for task 56: unlimited
  | Maximum stacksize for task 57: unlimited
  | Maximum stacksize for task 58: unlimited
  | Maximum stacksize for task 59: unlimited
  | Maximum stacksize for task 60: unlimited
  | Maximum stacksize for task 61: unlimited
  | Maximum stacksize for task 62: unlimited
  | Maximum stacksize for task 63: unlimited
  | Maximum stacksize for task 64: unlimited
  | Maximum stacksize for task 65: unlimited
  | Maximum stacksize for task 66: unlimited
  | Maximum stacksize for task 67: unlimited
  | Maximum stacksize for task 68: unlimited
  | Maximum stacksize for task 69: unlimited
  | Maximum stacksize for task 70: unlimited
  | Maximum stacksize for task 71: unlimited
  | Maximum stacksize for task 72: unlimited
  | Maximum stacksize for task 73: unlimited
  | Maximum stacksize for task 74: unlimited
  | Maximum stacksize for task 75: unlimited
  | Maximum stacksize for task 76: unlimited
  | Maximum stacksize for task 77: unlimited
  | Maximum stacksize for task 78: unlimited
  | Maximum stacksize for task 79: unlimited
  | Maximum stacksize for task 80: unlimited
  | Maximum stacksize for task 81: unlimited
  | Maximum stacksize for task 82: unlimited
  | Maximum stacksize for task 83: unlimited
  | Maximum stacksize for task 84: unlimited
  | Maximum stacksize for task 85: unlimited
  | Maximum stacksize for task 86: unlimited
  | Maximum stacksize for task 87: unlimited
  | Maximum stacksize for task 88: unlimited
  | Maximum stacksize for task 89: unlimited
  | Maximum stacksize for task 90: unlimited
  | Maximum stacksize for task 91: unlimited
  | Maximum stacksize for task 92: unlimited
  | Maximum stacksize for task 93: unlimited
  | Maximum stacksize for task 94: unlimited
  | Maximum stacksize for task 95: unlimited
  | Maximum stacksize for task 96: unlimited
  | Maximum stacksize for task 97: unlimited
  | Maximum stacksize for task 98: unlimited
  | Maximum stacksize for task 99: unlimited
  | Maximum stacksize for task 100: unlimited
  | Maximum stacksize for task 101: unlimited
  | Maximum stacksize for task 102: unlimited
  | Maximum stacksize for task 103: unlimited
  | Maximum stacksize for task 104: unlimited
  | Maximum stacksize for task 105: unlimited
  | Maximum stacksize for task 106: unlimited
  | Maximum stacksize for task 107: unlimited
  | Maximum stacksize for task 108: unlimited
  | Maximum stacksize for task 109: unlimited
  | Maximum stacksize for task 110: unlimited
  | Maximum stacksize for task 111: unlimited
  | Maximum stacksize for task 112: unlimited
  | Maximum stacksize for task 113: unlimited
  | Maximum stacksize for task 114: unlimited
  | Maximum stacksize for task 115: unlimited
  | Maximum stacksize for task 116: unlimited
  | Maximum stacksize for task 117: unlimited
  | Maximum stacksize for task 118: unlimited
  | Maximum stacksize for task 119: unlimited
  | Maximum stacksize for task 120: unlimited
  | Maximum stacksize for task 121: unlimited
  | Maximum stacksize for task 122: unlimited
  | Maximum stacksize for task 123: unlimited
  | Maximum stacksize for task 124: unlimited
  | Maximum stacksize for task 125: unlimited
  | Maximum stacksize for task 126: unlimited
  | Maximum stacksize for task 127: unlimited
  | Current stacksize for task 0: unlimited
  | Current stacksize for task 1: unlimited
  | Current stacksize for task 2: unlimited
  | Current stacksize for task 3: unlimited
  | Current stacksize for task 4: unlimited
  | Current stacksize for task 5: unlimited
  | Current stacksize for task 6: unlimited
  | Current stacksize for task 7: unlimited
  | Current stacksize for task 8: unlimited
  | Current stacksize for task 9: unlimited
  | Current stacksize for task 10: unlimited
  | Current stacksize for task 11: unlimited
  | Current stacksize for task 12: unlimited
  | Current stacksize for task 13: unlimited
  | Current stacksize for task 14: unlimited
  | Current stacksize for task 15: unlimited
  | Current stacksize for task 16: unlimited
  | Current stacksize for task 17: unlimited
  | Current stacksize for task 18: unlimited
  | Current stacksize for task 19: unlimited
  | Current stacksize for task 20: unlimited
  | Current stacksize for task 21: unlimited
  | Current stacksize for task 22: unlimited
  | Current stacksize for task 23: unlimited
  | Current stacksize for task 24: unlimited
  | Current stacksize for task 25: unlimited
  | Current stacksize for task 26: unlimited
  | Current stacksize for task 27: unlimited
  | Current stacksize for task 28: unlimited
  | Current stacksize for task 29: unlimited
  | Current stacksize for task 30: unlimited
  | Current stacksize for task 31: unlimited
  | Current stacksize for task 32: unlimited
  | Current stacksize for task 33: unlimited
  | Current stacksize for task 34: unlimited
  | Current stacksize for task 35: unlimited
  | Current stacksize for task 36: unlimited
  | Current stacksize for task 37: unlimited
  | Current stacksize for task 38: unlimited
  | Current stacksize for task 39: unlimited
  | Current stacksize for task 40: unlimited
  | Current stacksize for task 41: unlimited
  | Current stacksize for task 42: unlimited
  | Current stacksize for task 43: unlimited
  | Current stacksize for task 44: unlimited
  | Current stacksize for task 45: unlimited
  | Current stacksize for task 46: unlimited
  | Current stacksize for task 47: unlimited
  | Current stacksize for task 48: unlimited
  | Current stacksize for task 49: unlimited
  | Current stacksize for task 50: unlimited
  | Current stacksize for task 51: unlimited
  | Current stacksize for task 52: unlimited
  | Current stacksize for task 53: unlimited
  | Current stacksize for task 54: unlimited
  | Current stacksize for task 55: unlimited
  | Current stacksize for task 56: unlimited
  | Current stacksize for task 57: unlimited
  | Current stacksize for task 58: unlimited
  | Current stacksize for task 59: unlimited
  | Current stacksize for task 60: unlimited
  | Current stacksize for task 61: unlimited
  | Current stacksize for task 62: unlimited
  | Current stacksize for task 63: unlimited
  | Current stacksize for task 64: unlimited
  | Current stacksize for task 65: unlimited
  | Current stacksize for task 66: unlimited
  | Current stacksize for task 67: unlimited
  | Current stacksize for task 68: unlimited
  | Current stacksize for task 69: unlimited
  | Current stacksize for task 70: unlimited
  | Current stacksize for task 71: unlimited
  | Current stacksize for task 72: unlimited
  | Current stacksize for task 73: unlimited
  | Current stacksize for task 74: unlimited
  | Current stacksize for task 75: unlimited
  | Current stacksize for task 76: unlimited
  | Current stacksize for task 77: unlimited
  | Current stacksize for task 78: unlimited
  | Current stacksize for task 79: unlimited
  | Current stacksize for task 80: unlimited
  | Current stacksize for task 81: unlimited
  | Current stacksize for task 82: unlimited
  | Current stacksize for task 83: unlimited
  | Current stacksize for task 84: unlimited
  | Current stacksize for task 85: unlimited
  | Current stacksize for task 86: unlimited
  | Current stacksize for task 87: unlimited
  | Current stacksize for task 88: unlimited
  | Current stacksize for task 89: unlimited
  | Current stacksize for task 90: unlimited
  | Current stacksize for task 91: unlimited
  | Current stacksize for task 92: unlimited
  | Current stacksize for task 93: unlimited
  | Current stacksize for task 94: unlimited
  | Current stacksize for task 95: unlimited
  | Current stacksize for task 96: unlimited
  | Current stacksize for task 97: unlimited
  | Current stacksize for task 98: unlimited
  | Current stacksize for task 99: unlimited
  | Current stacksize for task 100: unlimited
  | Current stacksize for task 101: unlimited
  | Current stacksize for task 102: unlimited
  | Current stacksize for task 103: unlimited
  | Current stacksize for task 104: unlimited
  | Current stacksize for task 105: unlimited
  | Current stacksize for task 106: unlimited
  | Current stacksize for task 107: unlimited
  | Current stacksize for task 108: unlimited
  | Current stacksize for task 109: unlimited
  | Current stacksize for task 110: unlimited
  | Current stacksize for task 111: unlimited
  | Current stacksize for task 112: unlimited
  | Current stacksize for task 113: unlimited
  | Current stacksize for task 114: unlimited
  | Current stacksize for task 115: unlimited
  | Current stacksize for task 116: unlimited
  | Current stacksize for task 117: unlimited
  | Current stacksize for task 118: unlimited
  | Current stacksize for task 119: unlimited
  | Current stacksize for task 120: unlimited
  | Current stacksize for task 121: unlimited
  | Current stacksize for task 122: unlimited
  | Current stacksize for task 123: unlimited
  | Current stacksize for task 124: unlimited
  | Current stacksize for task 125: unlimited
  | Current stacksize for task 126: unlimited
  | Current stacksize for task 127: unlimited

  Consistency checks for the contents of control.in are next.

  MPI_IN_PLACE appears to work with this MPI implementation.
  | Keeping use_mpi_in_place .true. (see manual).
  Explicit treatment of the Coulomb operator is needed, but the RI method is not specified.
  Coulomb operator: Defaulting to 'RI-V' resolution of identity - RI_type = V
  Species Cu: Using default value for prodbas_acc =   1.000000E-04.
  Species Cu: Using default value max_l_prodbas =     5.
  Species C: Using default value for prodbas_acc =   1.000000E-02.
  Species C: Using default value max_l_prodbas =     5.
  Species N: Using default value for prodbas_acc =   1.000000E-02.
  Species N: Using default value max_l_prodbas =     5.
 * Species Cu: Specified min. number of angular integration points is   110
 * The angular momenta for this species require   194 for RI_type 'V'. Increasing angular_min to   194.
 * Species Cu: Grid shell     1 contains only   110 angular integration points.
 * Increasing to angular_min =   194 integration points.
 * This change is related to the three-center integrals used in RI_method 'V'.
 * Species C: Specified min. number of angular integration points is   110
 * The angular momenta for this species require   194 for RI_type 'V'. Increasing angular_min to   194.
 * Species C: Grid shell     1 contains only   110 angular integration points.
 * Increasing to angular_min =   194 integration points.
 * This change is related to the three-center integrals used in RI_method 'V'.
 * Species N: Specified min. number of angular integration points is   110
 * The angular momenta for this species require   194 for RI_type 'V'. Increasing angular_min to   194.
 * Species N: Grid shell     1 contains only   110 angular integration points.
 * Increasing to angular_min =   194 integration points.
 * This change is related to the three-center integrals used in RI_method 'V'.
  Target number of points in a grid batch is not set. Defaulting to  100
  Method for grid partitioning is not set. Defaulting to parallel hash+maxmin partitioning.
  Batch size limit is not set. Defaulting to    200
  By default, will store active basis functions for each batch.
  If in need of memory, prune_basis_once .false. can be used to disable this option.
  communication_type for Hartree potential was not specified.
  Defaulting to calc_hartree .
  Pulay mixer: Number of initial linear mixing iterations not set.
  Defaulting to    0 iterations.
  Work space size for distributed Hartree potential not set.
  Defaulting to   0.200000E+03 MB.
  Algorithm-dependent basis array size parameters:
  | n_max_pulay                         :       10
  Presetting      1001 iterations before the initial mixing cycle
  is restarted anyway using the sc_init_iter criterion / keyword.
  Presetting a factor      1.000 between actual scf density residual
  and density convergence criterion sc_accuracy_rho below which sc_init_iter
  takes no effect.
  Calculation of forces was not defined in control.in. No forces will be calculated.
  Geometry relaxation not requested: no relaxation will be performed.
  No accuracy limit for integral partition fn. given. Defaulting to  0.1000E-14.
  No threshold value for u(r) in integrations given. Defaulting to  0.1000E-05.
  No accuracy for occupation numbers given. Defaulting to  0.1000E-12.
  No threshold value for occupation numbers given. Defaulting to  0.0000E+00.
  No accuracy for fermi level given. Defaulting to  0.1000E-19.
  Maximum # of iterations to find E_F not set. Defaulting to  200.
  Will not use alltoall communication since running on < 1024 CPUs.
  Partitioning for Hartree potential was not defined. Using partition_type for integrals.
  | Reporting present value of keyword multip_moments_threshold  :       0.10000000E-09
  | This value may affect high angular momentum components of the Hartree potential in periodic systems.
  * Doing correlated calculations, so all empty single-particle states will be included.
  No q(lm)/r^(l+1) cutoff set for long-range Hartree potential.
  | Using default value of  0.100000E-09 .
  | Verify using the multipole_threshold keyword.
  Defaulting to new monopole extrapolation.
  Density update method: density matrix based density update selected.
  Charge integration errors on the 3D integration grid will be compensated
  by explicit normalization and distribution of residual charges.
  Use the "compensate_multipole_errors" flag to change this behaviour.
  Default to 1D ("use_logsbt") integrations for auxiliary 2-center integrals.
  Default onset of logarithmic r-grid for SBT is -38.000000000000
  Default onset of logarithmic k-grid for SBT is -25.000000000000
  Default range of logarithmic r- and k-grid for SBT is  45.000000000000
  Default number of logarithmic r- and k-grid for SBT is   4096
  *** Contour Deformation: Only support 2D parallization. Switching.
  Set 'collect_eigenvectors' to be '.true.' for GW/RPA/MP2, SCREX/COHSEX cluster calculations
  Set 'collect_eigenvectors' to be '.true.' for qpe_calc (quasiparticle energy).
  Set 'collect_eigenvectors' to be '.true.' for KS_method lapack_fast and serial.

  Consistency checks for the contents of geometry.in are next.

 * Warning! You are trying to treat an element beyond Ca (Z=20) without
 * accounting for relativity. This may lead to physically incorrect results.
 * If you know what you are doing, you may override this warning using the
 * flag override_relativity in control.in.
 * Else, please use the keyword 'relativistic atomic_zora scalar' (for relaxation) or
 * 'relativistic zora scalar 1e-12' as described in the documentation.
 *
 * Additional information about a change made 04/05/2010 (will be removed 2011):
 * Since there is no harm in using atomic_zora, we now mandate relativity also
 * for the 3d elements. Apologies to all those whom this affects for the first time.
 * Of course, any older nonrelativistic total energies for these elements must never
 * be compared (added or subtracted) directly to atomic_zora results.
  Number of empty states per atom not set in control.in .
  | Since you are using a method that relies on the unoccupied spectrum
  | (MP2,GW,RPA et al.), will use the full Hamiltonian size (see below)
  | as the max. possible number of states (occupied plus empty).

  Structure-dependent array size parameters: 
  | Maximum number of distinct radial functions  :       60
  | Maximum number of basis functions            :      198
  | Number of Kohn-Sham states (occupied + empty):      198
------------------------------------------------------------

------------------------------------------------------------
          Preparing all fixed parts of the calculation.
------------------------------------------------------------
  Determining machine precision:
     2.2250738585072014E-308
  Setting up grids for atomic and cluster calculations.

  Creating wave function, potential, and density for free atoms.
  Runtime choices for atomic solver:
  | atomic solver xc        : PBE
  | compute density gradient: 1
  | compute kinetic density : F

  Species: Cu

  List of occupied orbitals and eigenvalues:
    n    l              occ      energy [Ha]    energy [eV]
    1    0           2.0000      -321.427016     -8746.4741
    2    0           2.0000       -38.214097     -1039.8585
    3    0           2.0000        -4.077251      -110.9476
    4    0           1.0000        -0.163111        -4.4385
    2    1           6.0000       -33.501399      -911.6195
    3    1           6.0000        -2.612996       -71.1032
    3    2          10.0000        -0.191590        -5.2134


  Species: C

  List of occupied orbitals and eigenvalues:
    n    l              occ      energy [Ha]    energy [eV]
    1    0           2.0000       -10.042041      -273.2578
    2    0           2.0000        -0.504901       -13.7390
    2    1           2.0000        -0.194353        -5.2886


  Species: N

  List of occupied orbitals and eigenvalues:
    n    l              occ      energy [Ha]    energy [eV]
    1    0           2.0000       -14.129248      -384.4764
    2    0           2.0000        -0.681982       -18.5577
    2    1           3.0000        -0.260725        -7.0947


  Adding cutoff potential to free-atom effective potential.
  Creating fixed part of basis set: Ionic, confined, hydrogenic.

  Cu                   Gaussian:

  List of cartesian Gaussian basis orbitals: 
    L    l
    0    0
    0    0
    0    0
    0    0
    0    0
    0    0
    0    0
    0    0
    0    0
    0    0
    0    0
    1    1
    1    1
    1    1
    1    1
    1    1
    1    1
    2    2
    2    2
    2    2
    2    2
    2    2
    3    3
    3    3
    3    3
    4    4


  C                    Gaussian:

  List of cartesian Gaussian basis orbitals: 
    L    l
    0    0
    0    0
    0    0
    0    0
    0    0
    0    0
    0    0
    1    1
    1    1
    1    1
    1    1
    2    2
    2    2
    2    2
    3    3
    3    3
    4    4


  N                    Gaussian:

  List of cartesian Gaussian basis orbitals: 
    L    l
    0    0
    0    0
    0    0
    0    0
    0    0
    0    0
    0    0
    1    1
    1    1
    1    1
    1    1
    2    2
    2    2
    2    2
    3    3
    3    3
    4    4

  Creating atomic-like basis functions for current effective potential.
  Assembling full basis from fixed parts.
  | Species Cu : gaussian orbital   0 s accepted.
  | Species Cu : gaussian orbital   0 s accepted.
  | Species Cu : gaussian orbital   0 s accepted.
  | Species Cu : gaussian orbital   0 s accepted.
  | Species Cu : gaussian orbital   0 s accepted.
  | Species Cu : gaussian orbital   0 s accepted.
  | Species Cu : gaussian orbital   0 s accepted.
  | Species Cu : gaussian orbital   0 s accepted.
  | Species Cu : gaussian orbital   0 s accepted.
  | Species Cu : gaussian orbital   0 s accepted.
  | Species Cu : gaussian orbital   0 s accepted.
  | Species Cu : gaussian orbital   1 p accepted.
  | Species Cu : gaussian orbital   1 p accepted.
  | Species Cu : gaussian orbital   1 p accepted.
  | Species Cu : gaussian orbital   1 p accepted.
  | Species Cu : gaussian orbital   1 p accepted.
  | Species Cu : gaussian orbital   1 p accepted.
  | Species Cu : gaussian orbital   2 d accepted.
  | Species Cu : gaussian orbital   2 d accepted.
  | Species Cu : gaussian orbital   2 d accepted.
  | Species Cu : gaussian orbital   2 d accepted.
  | Species Cu : gaussian orbital   2 d accepted.
  | Species Cu : gaussian orbital   3 f accepted.
  | Species Cu : gaussian orbital   3 f accepted.
  | Species Cu : gaussian orbital   3 f accepted.
  | Species Cu : gaussian orbital   4 g accepted.
  | Species C : gaussian orbital   0 s accepted.
  | Species C : gaussian orbital   0 s accepted.
  | Species C : gaussian orbital   0 s accepted.
  | Species C : gaussian orbital   0 s accepted.
  | Species C : gaussian orbital   0 s accepted.
  | Species C : gaussian orbital   0 s accepted.
  | Species C : gaussian orbital   0 s accepted.
  | Species C : gaussian orbital   1 p accepted.
  | Species C : gaussian orbital   1 p accepted.
  | Species C : gaussian orbital   1 p accepted.
  | Species C : gaussian orbital   1 p accepted.
  | Species C : gaussian orbital   2 d accepted.
  | Species C : gaussian orbital   2 d accepted.
  | Species C : gaussian orbital   2 d accepted.
  | Species C : gaussian orbital   3 f accepted.
  | Species C : gaussian orbital   3 f accepted.
  | Species C : gaussian orbital   4 g accepted.
  | Species N : gaussian orbital   0 s accepted.
  | Species N : gaussian orbital   0 s accepted.
  | Species N : gaussian orbital   0 s accepted.
  | Species N : gaussian orbital   0 s accepted.
  | Species N : gaussian orbital   0 s accepted.
  | Species N : gaussian orbital   0 s accepted.
  | Species N : gaussian orbital   0 s accepted.
  | Species N : gaussian orbital   1 p accepted.
  | Species N : gaussian orbital   1 p accepted.
  | Species N : gaussian orbital   1 p accepted.
  | Species N : gaussian orbital   1 p accepted.
  | Species N : gaussian orbital   2 d accepted.
  | Species N : gaussian orbital   2 d accepted.
  | Species N : gaussian orbital   2 d accepted.
  | Species N : gaussian orbital   3 f accepted.
  | Species N : gaussian orbital   3 f accepted.
  | Species N : gaussian orbital   4 g accepted.

  Basis size parameters after reduction:
  | Total number of radial functions:       60
  | Total number of basis functions :      198

  Per-task memory consumption for arrays in subroutine allocate_ext:
  |          16.205700MB.
  Testing on-site integration grid accuracy.
  |  Species  Function  <phi|h_atom|phi> (log., in eV)  <phi|h_atom|phi> (rad., in eV)
           1        1              -8729.0315481470              -8715.4589024840 ***
           1        2               9529.5166859378               9610.2035286487 ***
           1        3               7193.1210675524               7230.6059281530 ***
           1        4               5210.1416337736               5232.2233527265 ***
           1        5               3249.9512273048               3261.2509327897 ***
           1        6               1668.9521127857               1673.7036583056 ***
           1        7                944.0115405298                946.2451294963 ***
           1        8                472.6716668331                473.6131332547 ***
           1        9                 89.0906072455                 89.2415752209 ***
           1       10                 49.4846812950                 49.5582799382 ***
           1       11                 23.3333923015                 23.3638919137 ***
           1       12               -911.5874608777               -911.5874596545
           1       13                -70.6323813342                -70.6323805938
           1       14                 18.6804852181                 18.6804853615
           1       15                 20.3660261474                 20.3660261013
           1       16                 13.2737246097                 13.2737243682
           1       17                  7.3677601627                  7.3678087740
           1       18                  7.9799321693                  7.9799324739
           1       19                 70.1169107162                 70.1169105406
           1       20                 52.4468079221                 52.4468066549
           1       21                 25.5946632593                 25.5946623396
           1       22                 16.3367737397                 16.3367728089
           1       23                435.9268070304                435.9268065751
           1       24                255.9353616309                255.9353570589
           1       25                105.9204592491                105.9204568899
           1       26                347.8836685535                347.8836653412
           2       27               -182.0416264037               -181.7405565790 ***
           2       28               3341.6437270688               3348.1771176099 ***
           2       29                521.8371784813                522.1487233651 ***
           2       30                533.2258380052                533.6703281595 ***
           2       31                220.0629629839                220.2164815805 ***
           2       32                109.0838503171                109.1456147745 ***
           2       33                 50.4744235290                 50.4978719632
           2       34                 11.1335401011                 11.1335387534
           2       35                 35.2716686944                 35.2716683423
           2       36                 27.2873579327                 27.2873575034
           2       37                 15.7181430372                 15.7181423787
           2       38                106.9244025471                106.9244018223
           2       39                 72.9999853374                 72.9999840555
           2       40                 36.5759533358                 36.5759523524
           2       41                131.9591853941                131.9591848168
           2       42                 68.2219810479                 68.2219805428
           2       43                127.2766254957                127.2766248670
           3       44               -264.5432893548               -263.9874535444 ***
           3       45               4367.3376942285               4378.6605423972 ***
           3       46                767.2749457774                767.9763632697 ***
           3       47                745.8006287945                746.6455314919 ***
           3       48                319.1237821340                319.4236476998 ***
           3       49                156.3503127390                156.4694003719 ***
           3       50                 71.3421222579                 71.3866879929 ***
           3       51                 15.7260725604                 15.7260734300
           3       52                 51.6176422071                 51.6176426430
           3       53                 39.5162519506                 39.5162516000
           3       54                 22.2520683051                 22.2520679855
           3       55                164.9661756018                164.9661764630
           3       56                109.1162417096                109.1162398341
           3       57                 53.8279305948                 53.8279296251
           3       58                189.2678310708                189.2678301114
           3       59                 96.9312577942                 96.9312583994
           3       60                180.8261710897                180.8261701237
 * Note: Onsite integrals marked "***" above are less accurate than
 * onsite_accuracy_threshold =    0.03000 eV. Usually, this is harmless.
 * However, one integral did have a negative value. This integral could be important.
 * When in doubt, tighten the "radial" and/or "radial_multiplier" flags to check.

  Preparing densities etc. for the partition functions (integrals / Hartree potential).

  Preparations completed.
  max(cpu_time)          :      0.278 s.
  Wall clock time (cpu1) :      0.279 s.
------------------------------------------------------------

  Initializing index lists of integration centers etc. from given atomic structure:
  | Number of centers in hartree potential         :         3
  | Number of centers in hartree multipole         :         3
  | Number of centers in electron density summation:         3
  | Number of centers in basis integrals           :         3
  | Number of centers in integrals                 :         3
  | Number of centers in hamiltonian               :         3

------------------------------------------------------------
          Begin self-consistency loop: Initialization.

          Date     :  20240515, Time     :  123125.606
------------------------------------------------------------
  * Using 128 tasks for Scalapack Eigenvalue solver.
  Detailed listing of tasks and assigned k-points:
  (for non-periodic systems, the "k-point" denotes an internal label only)
   Task     0 k-point     1 on n2cn0393.ab2021.local
   Task     1 k-point     1 on n2cn0393.ab2021.local
   Task     2 k-point     1 on n2cn0393.ab2021.local
   Task     3 k-point     1 on n2cn0393.ab2021.local
   Task     4 k-point     1 on n2cn0393.ab2021.local
   Task     5 k-point     1 on n2cn0393.ab2021.local
   Task     6 k-point     1 on n2cn0393.ab2021.local
   Task     7 k-point     1 on n2cn0393.ab2021.local
   Task     8 k-point     1 on n2cn0393.ab2021.local
   Task     9 k-point     1 on n2cn0393.ab2021.local
   Task    10 k-point     1 on n2cn0393.ab2021.local
   Task    11 k-point     1 on n2cn0393.ab2021.local
   Task    12 k-point     1 on n2cn0393.ab2021.local
   Task    13 k-point     1 on n2cn0393.ab2021.local
   Task    14 k-point     1 on n2cn0393.ab2021.local
   Task    15 k-point     1 on n2cn0393.ab2021.local
   Task    16 k-point     1 on n2cn0393.ab2021.local
   Task    17 k-point     1 on n2cn0393.ab2021.local
   Task    18 k-point     1 on n2cn0393.ab2021.local
   Task    19 k-point     1 on n2cn0393.ab2021.local
   Task    20 k-point     1 on n2cn0393.ab2021.local
   Task    21 k-point     1 on n2cn0393.ab2021.local
   Task    22 k-point     1 on n2cn0393.ab2021.local
   Task    23 k-point     1 on n2cn0393.ab2021.local
   Task    24 k-point     1 on n2cn0393.ab2021.local
   Task    25 k-point     1 on n2cn0393.ab2021.local
   Task    26 k-point     1 on n2cn0393.ab2021.local
   Task    27 k-point     1 on n2cn0393.ab2021.local
   Task    28 k-point     1 on n2cn0393.ab2021.local
   Task    29 k-point     1 on n2cn0393.ab2021.local
   Task    30 k-point     1 on n2cn0393.ab2021.local
   Task    31 k-point     1 on n2cn0393.ab2021.local
   Task    32 k-point     1 on n2cn0393.ab2021.local
   Task    33 k-point     1 on n2cn0393.ab2021.local
   Task    34 k-point     1 on n2cn0393.ab2021.local
   Task    35 k-point     1 on n2cn0393.ab2021.local
   Task    36 k-point     1 on n2cn0393.ab2021.local
   Task    37 k-point     1 on n2cn0393.ab2021.local
   Task    38 k-point     1 on n2cn0393.ab2021.local
   Task    39 k-point     1 on n2cn0393.ab2021.local
   Task    40 k-point     1 on n2cn0393.ab2021.local
   Task    41 k-point     1 on n2cn0393.ab2021.local
   Task    42 k-point     1 on n2cn0393.ab2021.local
   Task    43 k-point     1 on n2cn0393.ab2021.local
   Task    44 k-point     1 on n2cn0393.ab2021.local
   Task    45 k-point     1 on n2cn0393.ab2021.local
   Task    46 k-point     1 on n2cn0393.ab2021.local
   Task    47 k-point     1 on n2cn0393.ab2021.local
   Task    48 k-point     1 on n2cn0393.ab2021.local
   Task    49 k-point     1 on n2cn0393.ab2021.local
   Task    50 k-point     1 on n2cn0393.ab2021.local
   Task    51 k-point     1 on n2cn0393.ab2021.local
   Task    52 k-point     1 on n2cn0393.ab2021.local
   Task    53 k-point     1 on n2cn0393.ab2021.local
   Task    54 k-point     1 on n2cn0393.ab2021.local
   Task    55 k-point     1 on n2cn0393.ab2021.local
   Task    56 k-point     1 on n2cn0393.ab2021.local
   Task    57 k-point     1 on n2cn0393.ab2021.local
   Task    58 k-point     1 on n2cn0393.ab2021.local
   Task    59 k-point     1 on n2cn0393.ab2021.local
   Task    60 k-point     1 on n2cn0393.ab2021.local
   Task    61 k-point     1 on n2cn0393.ab2021.local
   Task    62 k-point     1 on n2cn0393.ab2021.local
   Task    63 k-point     1 on n2cn0393.ab2021.local
   Task    64 k-point     1 on n2cn0393.ab2021.local
   Task    65 k-point     1 on n2cn0393.ab2021.local
   Task    66 k-point     1 on n2cn0393.ab2021.local
   Task    67 k-point     1 on n2cn0393.ab2021.local
   Task    68 k-point     1 on n2cn0393.ab2021.local
   Task    69 k-point     1 on n2cn0393.ab2021.local
   Task    70 k-point     1 on n2cn0393.ab2021.local
   Task    71 k-point     1 on n2cn0393.ab2021.local
   Task    72 k-point     1 on n2cn0393.ab2021.local
   Task    73 k-point     1 on n2cn0393.ab2021.local
   Task    74 k-point     1 on n2cn0393.ab2021.local
   Task    75 k-point     1 on n2cn0393.ab2021.local
[...]
      96    0.0000       70.6845       -1.3594       -8.9935       -2.0650       76.2536
      97    0.0000       70.6845       -1.3594       -8.9935       -2.0662       76.2524
      98    0.0000       71.5221       -4.9317      -13.7404       -3.4966       76.8342
      99    0.0000       74.5171       -2.6978      -10.8350       -2.9686       79.6856
     100    0.0000       74.5171       -2.6978      -10.8350       -2.7285       79.9257
     101    0.0000       79.3968       -2.6279      -11.6331       -5.4339       82.9681
     102    0.0000       79.3969       -2.6279      -11.6331       -5.4192       82.9829
     103    0.0000       82.8651       -3.6763      -13.6479       -4.4356       88.4012
     104    0.0000       82.8651       -3.6763      -13.6479       -4.8084       88.0284
     105    0.0000       83.9542       -3.1431      -11.7966       -3.4112       89.1965
     106    0.0000       87.7685       -1.4748       -9.6677       -2.7592       93.2021
     107    0.0000       87.7685       -1.4748       -9.6677       -2.5967       93.3647
     108    0.0000       95.0354       -2.0829      -10.6462       -2.9882      100.6105
     109    0.0000       95.0354       -2.0829      -10.6462       -2.8380      100.7607
     110    0.0000       95.6970       -4.1470      -13.2600       -2.7727      102.0373
     111    0.0000       98.1118       -4.0530      -13.9623       -4.2748      103.7463
     112    0.0000      105.6403       -3.3614      -13.5702       -5.2802      110.5689
     113    0.0000      105.6403       -3.3614      -13.5702       -5.2272      110.6219
     114    0.0000      106.2151       -3.0409      -12.3922       -4.6268      110.9397
     115    0.0000      123.5983       -9.8452      -22.9946       -6.2385      130.5092
     116    0.0000      123.5984       -9.8452      -22.9946       -4.9737      131.7741
     117    0.0000      124.2460       -6.6238      -18.5362       -4.1866      131.9718
     118    0.0000      125.9768       -9.4924      -22.5110       -6.0288      132.9666
     119    0.0000      125.9768       -9.4924      -22.5110       -5.6712      133.3242
     120    0.0000      131.4573       -0.9174       -9.9024       -2.2703      138.1720
     121    0.0000      131.4573       -0.9174       -9.9024       -2.2756      138.1667
     122    0.0000      131.7277       -3.4644      -14.9547       -3.6786      139.5393
     123    0.0000      131.7277       -3.4644      -14.9547       -3.5445      139.6735
     124    0.0000      133.5489       -1.2115      -10.7914       -2.0073      141.1215
     125    0.0000      133.5489       -1.2115      -10.7914       -2.0134      141.1154
     126    0.0000      135.1129       -6.7573      -19.4763       -4.2883      143.5435
     127    0.0000      145.1619       -2.6266      -13.0833       -3.8732      151.7454
     128    0.0000      150.1594       -1.6316      -11.9696       -3.0507      157.4466
     129    0.0000      150.1594       -1.6316      -11.9697       -3.8379      156.6595
     130    0.0000      152.8627       -1.6064      -11.8404       -4.0366      159.0601
     131    0.0000      152.8627       -1.6064      -11.8404       -3.8920      159.2048
     132    0.0000      160.7931       -1.4839      -12.0354       -3.4962      167.8483
     133    0.0000      160.7931       -1.4840      -12.0354       -3.6704      167.6740
     134    0.0000      161.6708       -1.2716      -11.6756       -5.2075      166.8673
     135    0.0000      161.6708       -1.2716      -11.6756       -5.0195      167.0554
     136    0.0000      163.7233       -1.9646      -13.0209       -4.1003      170.6793
     137    0.0000      163.7233       -1.9646      -13.0209       -4.3393      170.4403
     138    0.0000      166.1540       -2.9722      -14.4919       -3.6132      174.0606
     139    0.0000      166.5738       -1.5697      -12.5133       -5.4874      172.0300
     140    0.0000      166.5744       -1.5697      -12.5134       -5.4451      172.0730
     141    0.0000      183.1668       -3.9477      -15.8914       -4.2054      190.9051
     142    0.0000      186.1258      -10.1797      -23.6986       -5.4908      194.1538
     143    0.0000      186.1258      -10.1797      -23.6986       -5.3907      194.2539
     144    0.0000      187.7790       -1.2527      -12.1697       -2.2895      196.4065
     145    0.0000      187.7818       -1.2527      -12.1698       -0.5429      198.1560
     146    0.0000      188.2858       -9.9361      -23.4476       -5.7954      196.0018
     147    0.0000      188.2860       -9.9361      -23.4476       -5.7667      196.0306
     148    0.0000      192.8401       -7.1910      -20.3294       -4.5365      201.4420
     149    0.0000      192.8401       -7.1910      -20.3294       -4.4732      201.5053
     150    0.0000      199.5349       -1.3185      -12.5834       -1.9379      208.8619
     151    0.0000      199.5349       -1.3185      -12.5834       -1.7417      209.0581
     152    0.0000      201.9876       -8.4330      -21.9969       -5.2907      210.2608
     153    0.0000      202.6826       -4.1509      -16.5058       -3.6753      211.3621
     154    0.0000      202.6826       -4.1509      -16.5058       -4.3939      210.6435
     155    0.0000      205.5683       -2.9827      -15.1160       -7.1433      210.5583
     156    0.0000      222.2402       -2.3778      -14.4067       -2.0220      232.2471
     157    0.0000      227.4228       -1.5741      -13.6419       -3.0589      236.4316
     158    0.0000      227.4232       -1.5742      -13.6420       -3.1798      236.3113
     159    0.0000      231.4929       -1.7674      -13.9952       -3.0198      240.7008
     160    0.0000      231.4929       -1.7674      -13.9952       -2.9306      240.7900
     161    0.0000      231.7534       -1.7585      -14.4954       -5.5821      238.9081
     162    0.0000      231.7534       -1.7585      -14.4954       -5.5071      238.9831
     163    0.0000      239.6777       -1.8722      -14.8207       -5.4145      247.2118
     164    0.0000      239.6780       -1.8722      -14.8208       -5.7050      246.9217
     165    0.0000      246.6170       -3.4877      -16.9218       -3.4175      256.6336
     166    0.0000      255.0900       -1.9941      -15.3447       -4.5475      263.8930
     167    0.0000      255.0901       -1.9941      -15.3448       -5.5596      262.8812
     168    0.0000      260.7681       -1.9865      -15.3594       -5.1481      268.9929
     169    0.0000      260.7681       -1.9865      -15.3594       -4.5468      269.5942
     170    0.0000      263.1268       -5.0307      -19.1254       -4.7206      272.5009
     171    0.0000      295.9278       -3.5209      -17.9133       -4.8329      305.4873
     172    0.0000      306.8567       -1.9244      -15.6891       -1.6740      318.9474
     173    0.0000      306.8567       -1.9244      -15.6891       -1.5736      319.0478
     174    0.0000      309.1254      -13.3843      -31.4855       -3.4894      323.7371
     175    0.0000      347.1960       -4.4962      -19.3974       -1.8325      360.2647
     176    0.0000      352.7361       -6.5477      -26.0381       -5.4099      366.8165
     177    0.0000      352.7361       -6.5477      -26.0381       -5.4294      366.7970
     178    0.0000      352.7695       -6.5169      -26.0083       -5.5289      366.7320
     179    0.0000      352.7701       -6.5169      -26.0083       -4.9823      367.2792
     180    0.0000      352.8171       -6.5393      -26.0261       -5.7956      366.5083
     181    0.0000      352.8203       -6.5393      -26.0260       -5.4523      366.8547
     182    0.0000      353.8206       -6.4574      -25.9402       -5.3831      367.9203
     183    0.0000      353.8206       -6.4574      -25.9402       -5.5637      367.7397
     184    0.0000      355.2895       -6.3881      -25.7828       -4.6103      370.0739
     185    0.0000      564.8573      -11.0572      -36.1341       -7.2593      582.6750
     186    0.0000      564.8573      -11.0572      -36.1341       -7.7756      582.1586
     187    0.0000      565.9401      -11.0590      -36.1646       -7.2884      583.7573
     188    0.0000      565.9404      -11.0590      -36.1646       -7.5346      583.5114
     189    0.0000      570.6206      -10.8631      -36.0015       -7.2904      588.4685
     190    0.0000      570.6206      -10.8631      -36.0015       -7.7776      587.9813
     191    0.0000      573.8372      -10.7498      -35.9037       -7.0836      591.9076
     192    0.0000      771.0418       -9.7968      -34.9755       -2.5028      793.7177
     193    0.0000     1025.0107      -11.7307      -40.9529       -1.9461     1052.2867
     194    0.0000     1100.2968      -22.4412      -54.6071       -1.1488     1131.3140
     195    0.0000     3740.8415      -39.8641     -100.5679       -0.6949     3800.8503
     196    0.0000     4022.1509      -11.2032      -70.7986       -4.2141     4077.5322
     197    0.0000     5376.8574      -13.3697      -82.6950       -3.5474     5442.6353
     198    0.0000    24662.3006      -82.1205     -256.1718        1.9679    24838.3199
----------------------------------------------------------------------------------------

   DFT/Hartree-Fock HOMO level (eV):    -8.1805   -8.1805

   Quasiparticle HOMO level (eV):      -10.2529  -10.2529
----------------------------------------------------------------------------------------

  Printing out the self-energy matrix element: 21 for spin  1

------------------------------------------------------------------------------------------------------

  Start calculating the spectral function for state: 21

------------------------------------------------------------------------------------------------------

          | Total time for transforming the 3-center integrals :        0.798 s
          | Total time for calculating the exchange-correlation
                                  energy matrix elements   :        0.010 s
          | Total time for calculating polarisability     
                        for imaginary frequencies          :       22.146 s
          | Total time for calculating self energy 
                        on imaginary frequency axis        :      373.089 s
          | Total time for calculating the quasiparticle 
                  energies with analytic continuation      :        0.029 s
          | Total time for calculating the quasiparticle 
                  energies with contour deformation        :      348.321 s

------------------------------------------------------------------------------
  Final output of selected total energy values:

  The following output summarizes some interesting total energy values
  at the end of a run (AFTER all relaxation, molecular dynamics, etc.).

  | Total energy of the DFT / Hartree-Fock s.c.f. calculation      :         -47131.015078623 eV
  | Final zero-broadening corrected energy (caution - metals only) :         -47131.015078623 eV
  | For reference only, the value of 1 Hartree used in FHI-aims is :             27.211384500 eV

  Before relying on these values, please be sure to understand exactly which
  total energy value is referred to by a given number. Different objects may
  all carry the same name 'total energy'. Definitions:

  Total energy of the DFT / Hartree-Fock s.c.f. calculation:
  | Note that this energy does not include ANY quantities calculated after the
  | s.c.f. cycle, in particular not ANY RPA, MP2, etc. many-body perturbation terms.

  Final zero-broadening corrected energy:
  | For metallic systems only, a broadening of the occupation numbers at the Fermi
  | level can be extrapolated back to zero broadening by an electron-gas inspired
  | formula. For all systems that are not real metals, this value can be
  | meaningless and should be avoided.

------------------------------------------------------------------------------
  Methods described in the following list of references were used in this FHI-aims run.
  If you publish the results, please make sure to cite these reference if they apply.
  FHI-aims is an academic code, and for our developers (often, Ph.D. students
  and postdocs), scientific credit in the community is essential.
  Thank you for helping us!

  For any use of FHI-aims, please cite:

    Volker Blum, Ralf Gehrke, Felix Hanke, Paula Havu, Ville Havu,
    Xinguo Ren, Karsten Reuter, and Matthias Scheffler
    'Ab initio molecular simulations with numeric atom-centered orbitals'
    Computer Physics Communications 180, 2175-2196 (2009)
    http://doi.org/10.1016/j.cpc.2009.06.022


  For Hartree-Fock, hybrid functionals, or many-body perturbation theory used in your run, please cite:

    Xinguo Ren, Patrick Rinke, Volker Blum, Juergen Wieferink, Alex Tkatchenko,
    Andrea Sanfilippo, Karsten Reuter, and Matthias Scheffler,
    'Resolution-of-identity approach to Hartree-Fock, hybrid density functionals,
    RPA, MP2, and GW with numeric atom-centered orbital basis functions'
    New Journal of Physics 14, 053020 (2012).
    http://doi.org/10.1088/1367-2630/14/5/053020


  The ELSI infrastructure was used in your run to solve the Kohn-Sham electronic structure.
  Please check out http://elsi-interchange.org to learn more.
  If scalability is important for your project, please acknowledge ELSI by citing:

    V. W-z. Yu, F. Corsetti, A. Garcia, W. P. Huhn, M. Jacquelin, W. Jia,
    B. Lange, L. Lin, J. Lu, W. Mi, A. Seifitokaldani, A. Vazquez-Mayagoitia,
    C. Yang, H. Yang, and V. Blum
    'ELSI: A unified software interface for Kohn-Sham electronic structure solvers'
    Computer Physics Communications 222, 267-285 (2018).
    http://doi.org/10.1016/j.cpc.2017.09.007


  For the real-space grid partitioning and parallelization used in this calculation, please cite:

    Ville Havu, Volker Blum, Paula Havu, and Matthias Scheffler,
    'Efficient O(N) integration for all-electron electronic structure calculation'
    'using numerically tabulated basis functions'
    Journal of Computational Physics 228, 8367-8379 (2009).
    http://doi.org/10.1016/j.jcp.2009.08.008

  Of course, there are many other important community references, e.g., those cited in the
  above references. Our list is limited to references that describe implementations in the
  FHI-aims code. The reason is purely practical (length of this list) - please credit others as well.

 * A warning was issued further up regarding the accuracy of onsite integrals.
   An integral with a negative eigenvalue was among the flagged integrals.
   In most standard situations, this warning is probably harmless.
   If needed, this can be verified by adjusting the radial_multiplier flag.

 * Warning - angular integration grids had to be adjusted for use with RI_method 'V'.
 * Background: You are using an electronic structure method that requires RI_method 'V'
 * for the resolution of identity of the Coulomb operator. (See Ren et al.,
 * New J. Phys 2012 for details.) This method requires three-center integrations
 * to be carried out on FHI-aims' normal angular and radial integration grids.
 * (See FHI-aims CPC Blum et al. 2009, p. 2183 for grid details and references.)
 * One of the angular grids specified in your control.in file was not large
 * enough for the maximal angular momenta of orbital and product basis functions
 * for its species.
 * This can lead to atomic total energy errors which cancel in energy differences.
 * Effective Sep 22, 2014, we have changed the default behavior of the code to
 * simply 'upgrade' the angular grids internally to a safe setting in this case.
 * Please be sure to NOT mix total energies from before and after the change.

------------------------------------------------------------
          Leaving FHI-aims.
          Date     :  20240515, Time     :  131639.691

          Computational steps:
          | Number of self-consistency cycles          :           17
          | Number of SCF (re)initializations          :            1

          Detailed time accounting                     :  max(cpu_time)    wall_clock(cpu1)
          | Total time                                  :     2694.112 s        2714.936 s
          | Preparation time                            :        0.278 s           0.279 s
          | Boundary condition initalization            :        0.001 s           0.001 s
          | Grid partitioning                           :        0.113 s           0.124 s
          | Preloading free-atom quantities on grid     :        0.014 s           0.014 s
          | Free-atom superposition energy              :        0.002 s           0.002 s
          | Total time for integrations                 :        0.165 s           0.163 s
          | Product basis setup: Total time             :        5.844 s           6.121 s
          | Product basis: | 3-center integrations     :(       3.444 s)  (       3.458 s)
          | Product basis: | 2-center integrations     :(       0.154 s)  (       0.155 s)
          | Product basis: | 2-center linear algebra   :(       1.165 s)  (       1.196 s)
          | Product basis: | 3-center x 2-center       :(       0.530 s)  (       0.718 s)
          | Total time evaluating exchange matrix       :        0.443 s           0.446 s
          | Transforming ovlp_3fn to ovlp_3KS           :        0.798 s           0.804 s
          | Screened Coulomb matrix W_mn(iw)            :      392.007 s         394.071 s
          | Polarisability matrix Pi_PQ(iw)             :       22.146 s          22.146 s
          | Total time for GW calculation               :     2684.042 s        2703.750 s
          | GW self-energy (analytic cont.)             :      393.027 s         395.126 s
          | Contour def: | Solving qp equations         :      348.321 s         349.901 s
          | Contour def: | GW self-energy               :     2285.956 s        2282.857 s
          | Contour def: | Scr Coulomb matrix W_mn(w)   :     2284.349 s        2281.232 s
          | Contour def: | CD-WAC W_mn(w) and Pade      :        0.000 s           0.000 s
          | Contour def: | Scr aux Coulomb mat W_PQ(w)  :     1560.360 s        1553.746 s
          | Contour def: | Polarisability Pi_PQ(w)      :      780.914 s         772.010 s
          | Contour def: | Printing self-energy CD      :     1821.737 s        1830.291 s
          | Contour def: | Spectral function CD         :      120.363 s         127.421 s
          | Total time for solution of K.-S. equations  :        0.563 s           0.566 s
          | Total time for density update               :        0.253 s           0.260 s
          | Total time for mixing                       :        1.854 s           1.340 s
          | Total time for Hartree multipole update     :        0.338 s           0.344 s
          | Total time for Hartree multipole sum        :        0.129 s           0.131 s
          | Total time for total energy evaluation      :        0.007 s           0.005 s

          Partial memory accounting:
          | Residual value for overall tracked memory usage across tasks:     0.000000 MB (should be 0.000000 MB)
          | Peak values for overall tracked memory usage:
          |   Minimum:        2.235 MB (on task  73 after allocating gradient_basis_wave)
          |   Maximum:        2.649 MB (on task   7 after allocating gradient_basis_wave)
          |   Average:        2.469 MB
          | Largest tracked array allocation:
          |   Minimum:        0.654 MB (gradient_basis_wave on task  73)
          |   Maximum:        0.813 MB (gradient_basis_wave on task   7)
          |   Average:        0.744 MB
          Note:  These values currently only include a subset of arrays which are explicitly tracked.
          The "true" memory usage will be greater.

          Have a nice day.
------------------------------------------------------------
