------------------------------------------------------------
          Invoking FHI-aims ...

          When using FHI-aims, please cite the following reference:

            Volker Blum, Ralf Gehrke, Felix Hanke, Paula Havu,
            Ville Havu, Xinguo Ren, Karsten Reuter, and Matthias Scheffler,
            'Ab Initio Molecular Simulations with Numeric Atom-Centered Orbitals',
            Computer Physics Communications 180, 2175-2196 (2009)

          In addition, many other developments in FHI-aims are likely important for
          your particular application. A partial list of references is given at the end of
          this file. Thank you for giving credit to the authors of these developments.

          For any questions about FHI-aims, please visit our slack channel at

            https://fhi-aims.slack.com

          and our main development and support site at

            https://aims-git.rz-berlin.mpg.de .

          The latter site, in particular, has a wiki to collect information, as well
          as an issue tracker to log discussions, suggest improvements, and report issues
          or bugs. https://aims-git.rz-berlin.mpg.de is also the main development site
          of the project and all new and updated code versions can be obtained there.
          Please send an email to aims-coordinators@fhi-berlin.mpg.de and we will add
          you to these sites. They are for you and everyone is welcome there.

------------------------------------------------------------



  Date     :  20240515, Time     :  123125.131
  Time zero on CPU 1             :   0.280089700000000E+01  s.
  Internal wall clock time zero  :           485008285.131  s.

  FHI-aims created a unique identifier for this run for later identification
  aims_uuid : 6EECDCAF-1EF6-4CA5-ACD1-E3A1CE6A3863

  Build configuration of the current instance of FHI-aims
  -------------------------------------------------------
  FHI-aims version      : 221103.1
  Commit number         : GITDIR-NOTFOUND
  CMake host system     : Linux-4.18.0-372.32.1.el8_6.x86_64
  CMake version         : 3.24.3
  Fortran compiler      : /opt/software/pc2/EB-SW/software/OpenMPI/4.1.4-GCC-12.2.0/bin/mpifort (GNU) version 12.2.0
  Fortran compiler flags: -O3 -ffree-line-length-none -fallow-argument-mismatch -march=znver3 -mprefer-vector-width=256
  C compiler            : /opt/software/pc2/EB-SW/software/GCCcore/12.2.0/bin/gcc (GNU) version 12.2.0
  C compiler flags      : -O3 -DNDEBUG -funroll-loops -march=znver3 -mprefer-vector-width=256
  HIP compiler          :
  HIP compiler flags    :
  HIP GPU arch          :
  Using MPI
  Using ScaLAPACK
  Using LibXC
  Using i-PI
  Using RLSY
  Linking against: /opt/software/pc2/EB-SW/software/ScaLAPACK/2.2.0-gompi-2022b-fb/lib/libscalapack.so
                   /opt/software/pc2/EB-SW/software/OpenBLAS/0.3.21-GCC-12.2.0/lib/libopenblas.so

  Using      128 parallel tasks.
  Task        0 on host n2cn0394.ab2021.local reporting.
  Task        1 on host n2cn0394.ab2021.local reporting.
  Task        2 on host n2cn0394.ab2021.local reporting.
  Task        3 on host n2cn0394.ab2021.local reporting.
  Task        4 on host n2cn0394.ab2021.local reporting.
  Task        5 on host n2cn0394.ab2021.local reporting.
  Task        6 on host n2cn0394.ab2021.local reporting.
  Task        7 on host n2cn0394.ab2021.local reporting.
  Task        8 on host n2cn0394.ab2021.local reporting.
  Task        9 on host n2cn0394.ab2021.local reporting.
  Task       10 on host n2cn0394.ab2021.local reporting.
  Task       11 on host n2cn0394.ab2021.local reporting.
  Task       12 on host n2cn0394.ab2021.local reporting.
  Task       13 on host n2cn0394.ab2021.local reporting.
  Task       14 on host n2cn0394.ab2021.local reporting.
  Task       15 on host n2cn0394.ab2021.local reporting.
  Task       16 on host n2cn0394.ab2021.local reporting.
  Task       17 on host n2cn0394.ab2021.local reporting.
  Task       18 on host n2cn0394.ab2021.local reporting.
  Task       19 on host n2cn0394.ab2021.local reporting.
  Task       20 on host n2cn0394.ab2021.local reporting.
  Task       21 on host n2cn0394.ab2021.local reporting.
  Task       22 on host n2cn0394.ab2021.local reporting.
  Task       23 on host n2cn0394.ab2021.local reporting.
  Task       24 on host n2cn0394.ab2021.local reporting.
  Task       25 on host n2cn0394.ab2021.local reporting.
  Task       26 on host n2cn0394.ab2021.local reporting.
  Task       27 on host n2cn0394.ab2021.local reporting.
  Task       28 on host n2cn0394.ab2021.local reporting.
  Task       29 on host n2cn0394.ab2021.local reporting.
  Task       30 on host n2cn0394.ab2021.local reporting.
  Task       31 on host n2cn0394.ab2021.local reporting.
  Task       32 on host n2cn0394.ab2021.local reporting.
  Task       33 on host n2cn0394.ab2021.local reporting.
  Task       34 on host n2cn0394.ab2021.local reporting.
  Task       35 on host n2cn0394.ab2021.local reporting.
  Task       36 on host n2cn0394.ab2021.local reporting.
  Task       37 on host n2cn0394.ab2021.local reporting.
  Task       38 on host n2cn0394.ab2021.local reporting.
  Task       39 on host n2cn0394.ab2021.local reporting.
  Task       40 on host n2cn0394.ab2021.local reporting.
  Task       41 on host n2cn0394.ab2021.local reporting.
  Task       42 on host n2cn0394.ab2021.local reporting.
  Task       43 on host n2cn0394.ab2021.local reporting.
  Task       44 on host n2cn0394.ab2021.local reporting.
  Task       45 on host n2cn0394.ab2021.local reporting.
  Task       46 on host n2cn0394.ab2021.local reporting.
  Task       47 on host n2cn0394.ab2021.local reporting.
  Task       48 on host n2cn0394.ab2021.local reporting.
  Task       49 on host n2cn0394.ab2021.local reporting.
  Task       50 on host n2cn0394.ab2021.local reporting.
  Task       51 on host n2cn0394.ab2021.local reporting.
  Task       52 on host n2cn0394.ab2021.local reporting.
  Task       53 on host n2cn0394.ab2021.local reporting.
  Task       54 on host n2cn0394.ab2021.local reporting.
  Task       55 on host n2cn0394.ab2021.local reporting.
  Task       56 on host n2cn0394.ab2021.local reporting.
  Task       57 on host n2cn0394.ab2021.local reporting.
  Task       58 on host n2cn0394.ab2021.local reporting.
  Task       59 on host n2cn0394.ab2021.local reporting.
  Task       60 on host n2cn0394.ab2021.local reporting.
  Task       61 on host n2cn0394.ab2021.local reporting.
  Task       62 on host n2cn0394.ab2021.local reporting.
  Task       63 on host n2cn0394.ab2021.local reporting.
  Task       64 on host n2cn0394.ab2021.local reporting.
  Task       65 on host n2cn0394.ab2021.local reporting.
  Task       66 on host n2cn0394.ab2021.local reporting.
  Task       67 on host n2cn0394.ab2021.local reporting.
  Task       68 on host n2cn0394.ab2021.local reporting.
  Task       69 on host n2cn0394.ab2021.local reporting.
  Task       70 on host n2cn0394.ab2021.local reporting.
  Task       71 on host n2cn0394.ab2021.local reporting.
  Task       72 on host n2cn0394.ab2021.local reporting.
  Task       73 on host n2cn0394.ab2021.local reporting.
  Task       74 on host n2cn0394.ab2021.local reporting.
  Task       75 on host n2cn0394.ab2021.local reporting.
  Task       76 on host n2cn0394.ab2021.local reporting.
  Task       77 on host n2cn0394.ab2021.local reporting.
  Task       78 on host n2cn0394.ab2021.local reporting.
  Task       79 on host n2cn0394.ab2021.local reporting.
  Task       80 on host n2cn0394.ab2021.local reporting.
  Task       81 on host n2cn0394.ab2021.local reporting.
  Task       82 on host n2cn0394.ab2021.local reporting.
  Task       83 on host n2cn0394.ab2021.local reporting.
  Task       84 on host n2cn0394.ab2021.local reporting.
  Task       85 on host n2cn0394.ab2021.local reporting.
  Task       86 on host n2cn0394.ab2021.local reporting.
  Task       87 on host n2cn0394.ab2021.local reporting.
  Task       88 on host n2cn0394.ab2021.local reporting.
  Task       89 on host n2cn0394.ab2021.local reporting.
  Task       90 on host n2cn0394.ab2021.local reporting.
  Task       91 on host n2cn0394.ab2021.local reporting.
  Task       92 on host n2cn0394.ab2021.local reporting.
  Task       93 on host n2cn0394.ab2021.local reporting.
  Task       94 on host n2cn0394.ab2021.local reporting.
  Task       95 on host n2cn0394.ab2021.local reporting.
  Task       96 on host n2cn0394.ab2021.local reporting.
  Task       97 on host n2cn0394.ab2021.local reporting.
  Task       98 on host n2cn0394.ab2021.local reporting.
  Task       99 on host n2cn0394.ab2021.local reporting.
  Task      100 on host n2cn0394.ab2021.local reporting.
  Task      101 on host n2cn0394.ab2021.local reporting.
  Task      102 on host n2cn0394.ab2021.local reporting.
  Task      103 on host n2cn0394.ab2021.local reporting.
  Task      104 on host n2cn0394.ab2021.local reporting.
  Task      105 on host n2cn0394.ab2021.local reporting.
  Task      106 on host n2cn0394.ab2021.local reporting.
  Task      107 on host n2cn0394.ab2021.local reporting.
  Task      108 on host n2cn0394.ab2021.local reporting.
  Task      109 on host n2cn0394.ab2021.local reporting.
  Task      110 on host n2cn0394.ab2021.local reporting.
  Task      111 on host n2cn0394.ab2021.local reporting.
  Task      112 on host n2cn0394.ab2021.local reporting.
  Task      113 on host n2cn0394.ab2021.local reporting.
  Task      114 on host n2cn0394.ab2021.local reporting.
  Task      115 on host n2cn0394.ab2021.local reporting.
  Task      116 on host n2cn0394.ab2021.local reporting.
  Task      117 on host n2cn0394.ab2021.local reporting.
  Task      118 on host n2cn0394.ab2021.local reporting.
  Task      119 on host n2cn0394.ab2021.local reporting.
  Task      120 on host n2cn0394.ab2021.local reporting.
  Task      121 on host n2cn0394.ab2021.local reporting.
  Task      122 on host n2cn0394.ab2021.local reporting.
  Task      123 on host n2cn0394.ab2021.local reporting.
  Task      124 on host n2cn0394.ab2021.local reporting.
  Task      125 on host n2cn0394.ab2021.local reporting.
  Task      126 on host n2cn0394.ab2021.local reporting.
  Task      127 on host n2cn0394.ab2021.local reporting.

  Performing system and environment tests:
  | Environment variable OMP_NUM_THREADS correctly set to 1.
  | Checking for ScaLAPACK...
  | Testing pdtran()...
  | All pdtran() tests passed.

  Obtaining array dimensions for all initial allocations:
  
  -----------------------------------------------------------------------
  Parsing control.in (first pass over file, find array dimensions only).
  The contents of control.in will be repeated verbatim below
  unless switched off by setting 'verbatim_writeout .false.' .
  in the first line of control.in .
  -----------------------------------------------------------------------
  
  #control.in header for database project
  #using def2-QVPZ basis for light and heavy elements
  
  #########################################
    xc                 pbe0
    qpe_calc           gw
    hybrid_xc_coeff 0.25
    #RI_method v
    #spin               collinear
    #default_initial_moment 0.01
    spin none
  
    anacon_type  1
    n_anacon_par 128
    frequency_points 600
    contour_def_gw   1 21
    contour_eta 0.004
    state_lower_limit 1
    state_upper_limit 500
    print_self_energy 10 -20.0 0.0
  
    relativistic none
    override_relativity .true.
    partition_type rho_r2
    density_update_method density_matrix
  
    calc_spectral_func -20.0 0.0 0.01
    spectral_func_state 10
  
  #########################################
    occupation_type    gaussian 0.000001
    mixer              pulay
      n_max_pulay        10
      charge_mix_param   0.2
    sc_accuracy_rho    1E-5
    sc_accuracy_eev    1E-5
    sc_accuracy_etot   1E-5
    sc_iter_limit      600
  #########################################
    prodbas_threshold  1.e-5
    KS_method          serial
    empty_states       25000
    # Do not check for overlapping xxx matrix
    # Not recommended
    # Necessary for large basis sets
    override_illconditioning .true.
    basis_threshold 1.e-5
  #########################################
  ################################################################################
  #
  #  FHI-aims code project
  # Volker Blum, Fritz Haber Institute Berlin, 2009
  #
  #  Suggested "tight" defaults for O atom (to be pasted into control.in file)
  #
  ################################################################################
    species        O
  #     global species definitions
      nucleus             8
      mass                15.9994
  #
      l_hartree           8
  #
      cut_pot             4.0  2.0  1.0
      basis_dep_cutoff    0.d0
  #
      radial_base         36 7.0
      radial_multiplier   4
       angular_grids specified
        division   0.4087  110
        division   0.5181  194
        division   0.6184  302
        division   0.7315  434
        division   0.7934  590
        division   0.9656  770
        division   1.4041  974
        outer_grid 974
        #outer_grid 590
  
  ################################################################################
  #
  #  Definition of "minimal" basis
  #
  ################################################################################
  #     valence basis states
      valence      2  s   2.
      valence      2  p   4.
  #     ion occupancy
      ion_occ      2  s   1.
      ion_occ      2  p   3.
  
  ################################################################################
  #
  #  Suggested additional basis functions. For production calculations,
  #  uncomment them one after another (the most important basis functions are
  #  listed first).
  #
  #  Constructed for dimers: 1.0 A, 1.208 A, 1.5 A, 2.0 A, 3.0 A
  #
  ################################################################################
  #  "First tier" - improvements: -699.05 meV to -159.38 meV
  #     hydro 2 p 1.8
  #     hydro 3 d 7.6
  #     hydro 3 s 6.4
  #  "Second tier" - improvements: -49.91 meV to -5.39 meV
  #     hydro 4 f 11.6
  #     hydro 3 p 6.2
  #     hydro 3 d 5.6
  #     hydro 5 g 17.6
  #     hydro 1 s 0.75
  #  "Third tier" - improvements: -2.83 meV to -0.50 meV
  #     ionic 2 p auto
  #     hydro 4 f 10.8
  #     hydro 4 d 4.7
  #     hydro 2 s 6.8
  #  "Fourth tier" - improvements: -0.40 meV to -0.12 meV
  #     hydro 3 p 5
  #     hydro 3 s 3.3
  #     hydro 5 g 15.6
  #     hydro 4 f 17.6
  #     hydro 4 d 14
  # Further basis functions - -0.08 meV and below
  #     hydro 3 s 2.1
  #     hydro 4 d 11.6
  #     hydro 3 p 16
  #     hydro 2 s 17.2
  
  
  ################################################################################
  #
  #  Suggested additional basis functions. For production calculations,
  #  uncomment them one after another (the most important basis functions are
  #  listed first).
  #
  #  Basis constructed for dimers: 0.5 A, 0.7 A, 1.0 A, 1.5 A, 2.5 A
  #
  ################################################################################
  # The default minimal basis should not be included
  include_min_basis .false.
  # Use spherical functions?
  pure_gauss .true.
  # O def2-QZVP
  gaussian 0 8
 116506.4690800              0.40383857939E-04
  17504.3497240              0.31255139004E-03
   3993.4513230              0.16341473495E-02
   1133.0063186              0.68283224757E-02
    369.99569594             0.24124410221E-01
    133.62074349             0.72730206154E-01
     52.035643649            0.17934429892
     21.461939313            0.33059588895
  gaussian 0 2
     89.835051252            0.96468652996E-01
     26.428010844            0.94117481120
  gaussian 0 1 9.2822824649
  gaussian 0 1 4.0947728533
  gaussian 0 1 1.3255349078
  gaussian 0 1 0.51877230787
  gaussian 0 1 0.19772676454
  gaussian 1 5
    191.15255810             0.25115697705E-02
     45.233356739            0.20039240864E-01
     14.353465922            0.93609064762E-01
      5.2422371832           0.30618127124
      2.0792418599           0.67810501439
  gaussian 1 1 0.84282371424
  gaussian 1 1 0.33617694891
  gaussian 1 1 0.12863997974
  gaussian 2 1 3.77500000
  gaussian 2 1 1.30000000
  gaussian 2 1 0.44400000
  gaussian 3 1 2.66600000
  gaussian 3 1 0.85900000
  gaussian 4 1 1.84600000
  
  ################################################################################
  #
  #  FHI-aims code project
  # Volker Blum, Fritz Haber Institute Berlin, 2009
  #
  #  Suggested "tight" defaults for Mg atom (to be pasted into control.in file)
  #
  #  2016/03/22 : Included the tier2 f function by default. This is
  #               certainly necessary to warrant the designation
  #               "tight". Note that convergence tests by including
  #               further individual radial functions from tier2 may be
  #               a good idea anyway.
  #
  #  2016/03/28 : After further discussions, added full tier 2 to default basis
  #               set (this is "tight" after all). Note that, particularly for
  #               hybrid functionals, it may be possible to get excellent accuracy
  #               using just tier 1 + the f function from tier 2, at much reduced
  #               cost.
  #
  ################################################################################
    species        Mg
  #     global species definitions
      nucleus             12
      mass                24.3050
  #
      l_hartree           8
  #
      cut_pot             5.0          2.0  1.0
      basis_dep_cutoff    0.d0
  #
      radial_base         40 7.0
      radial_multiplier   4
      angular_grids       specified
        division   0.5585  110
        division   0.7564  194
        division   0.9039  302
        division   1.1486  434
        division   1.2283  590
        division   1.3129  770
        division   3.5518  974
        outer_grid   974
  #      outer_grid   590
  
  ################################################################################
  #
  #  Definition of "minimal" basis
  #
  ################################################################################
  #     valence basis states
      valence      3  s   2.
      valence      2  p   6.
  #     ion occupancy
      ion_occ      2  s   2.
      ion_occ      2  p   6.
  
  
  
              # The default minimal basis should not be included
              include_min_basis .false.
              # Use spherical functions?
              pure_gauss .true.
              # Mg def2-QZVP
  gaussian 0 10
 605967.7875300              0.14430176617E-04
  90569.0946920              0.11249871807E-03
  20574.2528440              0.59264972450E-03
   5818.6284865              0.24988770424E-02
   1895.6296075              0.90230775141E-02
    683.45941021             0.28579919806E-01
    266.18219762             0.79064453923E-01
    110.11220010             0.18269337814
     47.777041234            0.32157193967
     21.542166149            0.35028259389
  gaussian 0 3
    174.12136378             0.22931111278E-01
     53.484972498            0.19151777552
     20.500213307            0.61155711055
  gaussian 0 1 9.8056826922
  gaussian 0 1 3.5402989348
  gaussian 0 1 1.5450850046
  gaussian 0 1 0.66540195432
  gaussian 0 1 0.14355439071
  gaussian 0 1 0.66624673468E-01
  gaussian 0 1 0.29772648266E-01
  gaussian 1 8
    893.20460829             0.34958267428E-03
    211.78258286             0.29811890111E-02
     68.443200537            0.15517845758E-01
     25.727265349            0.57578659557E-01
     10.606634281            0.15610307853
      4.5934126484           0.29230912580
      2.0100469807           0.37219024072
      0.87384841536          0.27578088891
  gaussian 1 1 0.35615076666
  gaussian 1 1 0.18995954356
  gaussian 1 1 0.74580135669E-01
  gaussian 1 1 0.29221641309E-01
  gaussian 2 1 3.8100000
  gaussian 2 1 0.6500000
  gaussian 2 1 0.2000000
  gaussian 2 1 0.0520000
  gaussian 3 1 0.1600000
  
  -----------------------------------------------------------------------
  Completed first pass over input file control.in .
  -----------------------------------------------------------------------
  
  
  -----------------------------------------------------------------------
  Parsing geometry.in (first pass over file, find array dimensions only).
  The contents of geometry.in will be repeated verbatim below
  unless switched off by setting 'verbatim_writeout .false.' .
  in the first line of geometry.in .
  -----------------------------------------------------------------------
  
  atom 0.0000 0.0000 0.0000 Mg
  atom 0.0000 0.0000 1.749  O
  
  -----------------------------------------------------------------------
  Completed first pass over input file geometry.in .
  -----------------------------------------------------------------------
  

  Basic array size parameters:
  | Number of species                 :        2
  | Number of atoms                   :        2
  | Max. basis fn. angular momentum   :        4
  | Max. atomic/ionic basis occupied n:        3
  | Max. number of basis fn. types    :        1
  | Max. radial fns per species/type  :       24
  | Max. logarithmic grid size        :     1334
  | Max. radial integration grid size :      163
  | Max. angular integration grid size:      974
  | Max. angular grid division number :        8
  | Radial grid for Hartree potential :     1334
  | Number of spin channels           :        1

------------------------------------------------------------
          Reading file control.in.
------------------------------------------------------------
  XC: Using hybrid-PBE0 functionals.
  GW quasiparticle calculation of excited states will be started after the DFT/HF calculation.
  hybrid_xc_coeff: Mixing coefficient for hybrid-functional exact exchange modified to         0.25000000 .
  * WARNING: This change modifies the chosen exchange-correlation functional (keyword 'xc')
  * from its literature definition. Be sure to NEVER include such a line in any default control.in files!
  Spin treatment: No spin polarisation.
  Using Pade approximation for analytical continuation.
  Number of fitting parameters for analytical continuation :    128
  Number of frequency points used for the self-energy calculation:    600
  Contour deformation in GW for the levels:      1     to      21
  Broadening parameter eta:       0.004000
  Lower limit of the eigenstates for the self-energy correction :      1
  Upper limit of the eigenstates for the self-energy correction :    500
  Non-relativistic treatment of kinetic energy.
  override_relativity: Explicitly overriding any built-in relativity checks.
  If you use this flag, you should really know what you are doing.
  Partition function in integrals calculations: rho / r^2
  Spectral function will be calculated from:   -20.000   to        0.000  eV
  Occupation type: Gaussian broadening, width =   0.100000E-05 eV.
  Using pulay charge density mixing.
  Pulay mixing - number of memorized iterations:   10
  Charge density mixing - mixing parameter:     0.2000
  Convergence accuracy of self-consistent charge density:  0.1000E-04
  Convergence accuracy of sum of eigenvalues:  0.1000E-04
  Convergence accuracy of total energy:  0.1000E-04
  Maximum number of s.-c. iterations  :   600
  Threshold for auxiliary basis singularities:  0.1000E-04
  Kohn-Sham eigenvalues and eigenfunctions calculated by LAPACK via ELSI.
  Number of empty states per atom:    25000
  override_illconditioning: Explicitly overriding any built-in checks for an ill-conditioned overlap matrix.
  *** WARNING: If you use this flag, you should really know what you are doing.
  *** DO NOT keep this flag set by default in all your control.in files.
  Threshold for basis singularities:  0.1000E-04

  Reading configuration options for species O                   .
  | Found nuclear charge :   8.0000
  | Found atomic mass :    15.999400000000000      amu
  | Found l_max for Hartree potential  :   8
  | Found cutoff potl. onset [A], width [A], scale factor :    4.00000    2.00000    1.00000
  | Threshold for basis-dependent cutoff potential is   0.000000E+00
  | Found data for basic radial integration grid :    36 points, outermost radius =    7.000 A
  | Found multiplier for basic radial grid :   4
  | Found angular grid specification: user-specified.
  | Specified grid contains     8 separate shells.
  | Check grid settings after all constraints further below.
  | Found free-atom valence shell :  2 s   2.000
  | Found free-atom valence shell :  2 p   4.000
  | No ionic wave fns used. Skipping ion_occ.
  | No ionic wave fns used. Skipping ion_occ.
  | Found request to include minimal basis fns. :     F
  | Found request to include pure gaussian fns. :     T
  | Found contracted cartesian Gaussian basis function :  L = 0 ,   8 elementary Gaussians:
  |   alpha = 0.116506E+06 weight = 0.403839E-04
  |   alpha = 0.175043E+05 weight = 0.312551E-03
  |   alpha = 0.399345E+04 weight = 0.163415E-02
  |   alpha = 0.113301E+04 weight = 0.682832E-02
  |   alpha = 0.369996E+03 weight = 0.241244E-01
  |   alpha = 0.133621E+03 weight = 0.727302E-01
  |   alpha = 0.520356E+02 weight = 0.179344E+00
  |   alpha = 0.214619E+02 weight = 0.330596E+00
  |   In terms of angular momentum, this radial function adds: 
  |     1 s-type basis function
  | Found contracted cartesian Gaussian basis function :  L = 0 ,   2 elementary Gaussians:
  |   alpha = 0.898351E+02 weight = 0.964687E-01
  |   alpha = 0.264280E+02 weight = 0.941175E+00
  |   In terms of angular momentum, this radial function adds: 
  |     1 s-type basis function
  | Found primitive cartesian Gaussian basis function :  0 0.928228E+01
  |   In terms of angular momentum, this radial function adds: 
  |     1 s-type basis function
  | Found primitive cartesian Gaussian basis function :  0 0.409477E+01
  |   In terms of angular momentum, this radial function adds: 
  |     1 s-type basis function
  | Found primitive cartesian Gaussian basis function :  0 0.132553E+01
  |   In terms of angular momentum, this radial function adds: 
  |     1 s-type basis function
  | Found primitive cartesian Gaussian basis function :  0 0.518772E+00
  |   In terms of angular momentum, this radial function adds: 
  |     1 s-type basis function
  | Found primitive cartesian Gaussian basis function :  0 0.197727E+00
  |   In terms of angular momentum, this radial function adds: 
  |     1 s-type basis function
  | Found contracted cartesian Gaussian basis function :  L = 1 ,   5 elementary Gaussians:
  |   alpha = 0.191153E+03 weight = 0.251157E-02
  |   alpha = 0.452334E+02 weight = 0.200392E-01
  |   alpha = 0.143535E+02 weight = 0.936091E-01
  |   alpha = 0.524224E+01 weight = 0.306181E+00
  |   alpha = 0.207924E+01 weight = 0.678105E+00
  |   In terms of angular momentum, this radial function adds: 
  |     3 p-type basis functions
  | Found primitive cartesian Gaussian basis function :  1 0.842824E+00
  |   In terms of angular momentum, this radial function adds: 
  |     3 p-type basis functions
  | Found primitive cartesian Gaussian basis function :  1 0.336177E+00
  |   In terms of angular momentum, this radial function adds: 
  |     3 p-type basis functions
  | Found primitive cartesian Gaussian basis function :  1 0.128640E+00
  |   In terms of angular momentum, this radial function adds: 
  |     3 p-type basis functions
  | Found primitive cartesian Gaussian basis function :  2 0.377500E+01
  |   In terms of angular momentum, this radial function adds: 
  |     5 d-type basis functions
  | Found primitive cartesian Gaussian basis function :  2 0.130000E+01
  |   In terms of angular momentum, this radial function adds: 
  |     5 d-type basis functions
  | Found primitive cartesian Gaussian basis function :  2 0.444000E+00
  |   In terms of angular momentum, this radial function adds: 
  |     5 d-type basis functions
  | Found primitive cartesian Gaussian basis function :  3 0.266600E+01
  |   In terms of angular momentum, this radial function adds: 
  |     7 f-type basis functions
  | Found primitive cartesian Gaussian basis function :  3 0.859000E+00
  |   In terms of angular momentum, this radial function adds: 
  |     7 f-type basis functions
  | Found primitive cartesian Gaussian basis function :  4 0.184600E+01
  |   In terms of angular momentum, this radial function adds: 
  |     9 g-type basis functions
  Species O                   : Missing cutoff potential type.
  Defaulting to exp(1/x)/(1-x)^2 type cutoff potential.
  Species O : No 'logarithmic' tag. Using default grid for free atom:
  | Default logarithmic grid data [bohr] : 0.1000E-03 0.1000E+03 0.1012E+01
  Species O : On-site basis accuracy parameter (for Gram-Schmidt orthonormalisation) not specified.
  Using default value basis_acc =  0.1000000E-03.
  Species O                   : Using default innermost maximum threshold i_radial=  2 for radial functions.
  Species O                   : Default cutoff onset for free atom density etc. is infinite
  since the product basis is used (hybrid functionals, Hartree-Fock, GW etc.).
  Species O                   : Basic radial grid will be enhanced according to radial_multiplier =   4, to contain   147 grid points.

  Reading configuration options for species Mg                  .
  | Found nuclear charge :  12.0000
  | Found atomic mass :    24.305000000000000      amu
  | Found l_max for Hartree potential  :   8
  | Found cutoff potl. onset [A], width [A], scale factor :    5.00000    2.00000    1.00000
  | Threshold for basis-dependent cutoff potential is   0.000000E+00
  | Found data for basic radial integration grid :    40 points, outermost radius =    7.000 A
  | Found multiplier for basic radial grid :   4
  | Found angular grid specification: user-specified.
  | Specified grid contains     8 separate shells.
  | Check grid settings after all constraints further below.
  | Found free-atom valence shell :  3 s   2.000
  | Found free-atom valence shell :  2 p   6.000
  | No ionic wave fns used. Skipping ion_occ.
  | No ionic wave fns used. Skipping ion_occ.
  | Found request to include minimal basis fns. :     F
  | Found request to include pure gaussian fns. :     T
  | Found contracted cartesian Gaussian basis function :  L = 0 ,  10 elementary Gaussians:
  |   alpha = 0.605968E+06 weight = 0.144302E-04
  |   alpha = 0.905691E+05 weight = 0.112499E-03
  |   alpha = 0.205743E+05 weight = 0.592650E-03
  |   alpha = 0.581863E+04 weight = 0.249888E-02
  |   alpha = 0.189563E+04 weight = 0.902308E-02
  |   alpha = 0.683459E+03 weight = 0.285799E-01
  |   alpha = 0.266182E+03 weight = 0.790645E-01
  |   alpha = 0.110112E+03 weight = 0.182693E+00
  |   alpha = 0.477770E+02 weight = 0.321572E+00
  |   alpha = 0.215422E+02 weight = 0.350283E+00
  |   In terms of angular momentum, this radial function adds: 
  |     1 s-type basis function
  | Found contracted cartesian Gaussian basis function :  L = 0 ,   3 elementary Gaussians:
  |   alpha = 0.174121E+03 weight = 0.229311E-01
  |   alpha = 0.534850E+02 weight = 0.191518E+00
  |   alpha = 0.205002E+02 weight = 0.611557E+00
  |   In terms of angular momentum, this radial function adds: 
  |     1 s-type basis function
  | Found primitive cartesian Gaussian basis function :  0 0.980568E+01
  |   In terms of angular momentum, this radial function adds: 
  |     1 s-type basis function
  | Found primitive cartesian Gaussian basis function :  0 0.354030E+01
  |   In terms of angular momentum, this radial function adds: 
  |     1 s-type basis function
  | Found primitive cartesian Gaussian basis function :  0 0.154509E+01
  |   In terms of angular momentum, this radial function adds: 
  |     1 s-type basis function
  | Found primitive cartesian Gaussian basis function :  0 0.665402E+00
  |   In terms of angular momentum, this radial function adds: 
  |     1 s-type basis function
  | Found primitive cartesian Gaussian basis function :  0 0.143554E+00
  |   In terms of angular momentum, this radial function adds: 
  |     1 s-type basis function
  | Found primitive cartesian Gaussian basis function :  0 0.666247E-01
  |   In terms of angular momentum, this radial function adds: 
  |     1 s-type basis function
  | Found primitive cartesian Gaussian basis function :  0 0.297726E-01
  |   In terms of angular momentum, this radial function adds: 
  |     1 s-type basis function
  | Found contracted cartesian Gaussian basis function :  L = 1 ,   8 elementary Gaussians:
  |   alpha = 0.893205E+03 weight = 0.349583E-03
  |   alpha = 0.211783E+03 weight = 0.298119E-02
  |   alpha = 0.684432E+02 weight = 0.155178E-01
  |   alpha = 0.257273E+02 weight = 0.575787E-01
  |   alpha = 0.106066E+02 weight = 0.156103E+00
  |   alpha = 0.459341E+01 weight = 0.292309E+00
  |   alpha = 0.201005E+01 weight = 0.372190E+00
  |   alpha = 0.873848E+00 weight = 0.275781E+00
  |   In terms of angular momentum, this radial function adds: 
  |     3 p-type basis functions
  | Found primitive cartesian Gaussian basis function :  1 0.356151E+00
  |   In terms of angular momentum, this radial function adds: 
  |     3 p-type basis functions
  | Found primitive cartesian Gaussian basis function :  1 0.189960E+00
  |   In terms of angular momentum, this radial function adds: 
  |     3 p-type basis functions
  | Found primitive cartesian Gaussian basis function :  1 0.745801E-01
  |   In terms of angular momentum, this radial function adds: 
  |     3 p-type basis functions
  | Found primitive cartesian Gaussian basis function :  1 0.292216E-01
  |   In terms of angular momentum, this radial function adds: 
  |     3 p-type basis functions
  | Found primitive cartesian Gaussian basis function :  2 0.381000E+01
  |   In terms of angular momentum, this radial function adds: 
  |     5 d-type basis functions
  | Found primitive cartesian Gaussian basis function :  2 0.650000E+00
  |   In terms of angular momentum, this radial function adds: 
  |     5 d-type basis functions
  | Found primitive cartesian Gaussian basis function :  2 0.200000E+00
  |   In terms of angular momentum, this radial function adds: 
  |     5 d-type basis functions
  | Found primitive cartesian Gaussian basis function :  2 0.520000E-01
  |   In terms of angular momentum, this radial function adds: 
  |     5 d-type basis functions
  | Found primitive cartesian Gaussian basis function :  3 0.160000E+00
  |   In terms of angular momentum, this radial function adds: 
  |     7 f-type basis functions
  Species Mg                  : Missing cutoff potential type.
  Defaulting to exp(1/x)/(1-x)^2 type cutoff potential.
  Species Mg: No 'logarithmic' tag. Using default grid for free atom:
  | Default logarithmic grid data [bohr] : 0.1000E-03 0.1000E+03 0.1012E+01
  Species Mg: On-site basis accuracy parameter (for Gram-Schmidt orthonormalisation) not specified.
  Using default value basis_acc =  0.1000000E-03.
  Species Mg                  : Using default innermost maximum threshold i_radial=  2 for radial functions.
  Species Mg                  : Default cutoff onset for free atom density etc. is infinite
  since the product basis is used (hybrid functionals, Hartree-Fock, GW etc.).
  Species Mg                  : Basic radial grid will be enhanced according to radial_multiplier =   4, to contain   163 grid points.

  Finished reading input file 'control.in'.

------------------------------------------------------------


------------------------------------------------------------
          Reading geometry description geometry.in.
------------------------------------------------------------
  | The smallest distance between any two atoms is         1.74900000 AA.
  | The first atom of this pair is atom number                      1 .
  | The second atom of this pair is atom number                     2 .
  Input structure read successfully.
  The structure contains        2 atoms,  and a total of         20.000 electrons.

  Input geometry:
  | No unit cell requested.
  | Atomic structure:
  |       Atom                x [A]            y [A]            z [A]
  |    1: Species Mg            0.00000000        0.00000000        0.00000000
  |    2: Species O             0.00000000        0.00000000        1.74900000


  Finished reading input file 'geometry.in'.



  Consistency checks for stacksize environment parameter are next.

  | Maximum stacksize for task 0: unlimited
  | Maximum stacksize for task 1: unlimited
  | Maximum stacksize for task 2: unlimited
  | Maximum stacksize for task 3: unlimited
  | Maximum stacksize for task 4: unlimited
  | Maximum stacksize for task 5: unlimited
  | Maximum stacksize for task 6: unlimited
  | Maximum stacksize for task 7: unlimited
  | Maximum stacksize for task 8: unlimited
  | Maximum stacksize for task 9: unlimited
  | Maximum stacksize for task 10: unlimited
  | Maximum stacksize for task 11: unlimited
  | Maximum stacksize for task 12: unlimited
  | Maximum stacksize for task 13: unlimited
  | Maximum stacksize for task 14: unlimited
  | Maximum stacksize for task 15: unlimited
  | Maximum stacksize for task 16: unlimited
  | Maximum stacksize for task 17: unlimited
  | Maximum stacksize for task 18: unlimited
  | Maximum stacksize for task 19: unlimited
  | Maximum stacksize for task 20: unlimited
  | Maximum stacksize for task 21: unlimited
  | Maximum stacksize for task 22: unlimited
  | Maximum stacksize for task 23: unlimited
  | Maximum stacksize for task 24: unlimited
  | Maximum stacksize for task 25: unlimited
  | Maximum stacksize for task 26: unlimited
  | Maximum stacksize for task 27: unlimited
  | Maximum stacksize for task 28: unlimited
  | Maximum stacksize for task 29: unlimited
  | Maximum stacksize for task 30: unlimited
  | Maximum stacksize for task 31: unlimited
  | Maximum stacksize for task 32: unlimited
  | Maximum stacksize for task 33: unlimited
  | Maximum stacksize for task 34: unlimited
  | Maximum stacksize for task 35: unlimited
  | Maximum stacksize for task 36: unlimited
  | Maximum stacksize for task 37: unlimited
  | Maximum stacksize for task 38: unlimited
  | Maximum stacksize for task 39: unlimited
  | Maximum stacksize for task 40: unlimited
  | Maximum stacksize for task 41: unlimited
  | Maximum stacksize for task 42: unlimited
  | Maximum stacksize for task 43: unlimited
  | Maximum stacksize for task 44: unlimited
  | Maximum stacksize for task 45: unlimited
  | Maximum stacksize for task 46: unlimited
  | Maximum stacksize for task 47: unlimited
  | Maximum stacksize for task 48: unlimited
  | Maximum stacksize for task 49: unlimited
  | Maximum stacksize for task 50: unlimited
  | Maximum stacksize for task 51: unlimited
  | Maximum stacksize for task 52: unlimited
  | Maximum stacksize for task 53: unlimited
  | Maximum stacksize for task 54: unlimited
  | Maximum stacksize for task 55: unlimited
  | Maximum stacksize for task 56: unlimited
  | Maximum stacksize for task 57: unlimited
  | Maximum stacksize for task 58: unlimited
  | Maximum stacksize for task 59: unlimited
  | Maximum stacksize for task 60: unlimited
  | Maximum stacksize for task 61: unlimited
  | Maximum stacksize for task 62: unlimited
  | Maximum stacksize for task 63: unlimited
  | Maximum stacksize for task 64: unlimited
  | Maximum stacksize for task 65: unlimited
  | Maximum stacksize for task 66: unlimited
  | Maximum stacksize for task 67: unlimited
  | Maximum stacksize for task 68: unlimited
  | Maximum stacksize for task 69: unlimited
  | Maximum stacksize for task 70: unlimited
  | Maximum stacksize for task 71: unlimited
  | Maximum stacksize for task 72: unlimited
  | Maximum stacksize for task 73: unlimited
  | Maximum stacksize for task 74: unlimited
  | Maximum stacksize for task 75: unlimited
  | Maximum stacksize for task 76: unlimited
  | Maximum stacksize for task 77: unlimited
  | Maximum stacksize for task 78: unlimited
  | Maximum stacksize for task 79: unlimited
  | Maximum stacksize for task 80: unlimited
  | Maximum stacksize for task 81: unlimited
  | Maximum stacksize for task 82: unlimited
  | Maximum stacksize for task 83: unlimited
  | Maximum stacksize for task 84: unlimited
  | Maximum stacksize for task 85: unlimited
  | Maximum stacksize for task 86: unlimited
  | Maximum stacksize for task 87: unlimited
  | Maximum stacksize for task 88: unlimited
  | Maximum stacksize for task 89: unlimited
  | Maximum stacksize for task 90: unlimited
  | Maximum stacksize for task 91: unlimited
  | Maximum stacksize for task 92: unlimited
  | Maximum stacksize for task 93: unlimited
  | Maximum stacksize for task 94: unlimited
  | Maximum stacksize for task 95: unlimited
  | Maximum stacksize for task 96: unlimited
  | Maximum stacksize for task 97: unlimited
  | Maximum stacksize for task 98: unlimited
  | Maximum stacksize for task 99: unlimited
  | Maximum stacksize for task 100: unlimited
  | Maximum stacksize for task 101: unlimited
  | Maximum stacksize for task 102: unlimited
  | Maximum stacksize for task 103: unlimited
  | Maximum stacksize for task 104: unlimited
  | Maximum stacksize for task 105: unlimited
  | Maximum stacksize for task 106: unlimited
  | Maximum stacksize for task 107: unlimited
  | Maximum stacksize for task 108: unlimited
  | Maximum stacksize for task 109: unlimited
  | Maximum stacksize for task 110: unlimited
  | Maximum stacksize for task 111: unlimited
  | Maximum stacksize for task 112: unlimited
  | Maximum stacksize for task 113: unlimited
  | Maximum stacksize for task 114: unlimited
  | Maximum stacksize for task 115: unlimited
  | Maximum stacksize for task 116: unlimited
  | Maximum stacksize for task 117: unlimited
  | Maximum stacksize for task 118: unlimited
  | Maximum stacksize for task 119: unlimited
  | Maximum stacksize for task 120: unlimited
  | Maximum stacksize for task 121: unlimited
  | Maximum stacksize for task 122: unlimited
  | Maximum stacksize for task 123: unlimited
  | Maximum stacksize for task 124: unlimited
  | Maximum stacksize for task 125: unlimited
  | Maximum stacksize for task 126: unlimited
  | Maximum stacksize for task 127: unlimited
  | Current stacksize for task 0: unlimited
  | Current stacksize for task 1: unlimited
  | Current stacksize for task 2: unlimited
  | Current stacksize for task 3: unlimited
  | Current stacksize for task 4: unlimited
  | Current stacksize for task 5: unlimited
  | Current stacksize for task 6: unlimited
  | Current stacksize for task 7: unlimited
  | Current stacksize for task 8: unlimited
  | Current stacksize for task 9: unlimited
  | Current stacksize for task 10: unlimited
  | Current stacksize for task 11: unlimited
  | Current stacksize for task 12: unlimited
  | Current stacksize for task 13: unlimited
  | Current stacksize for task 14: unlimited
  | Current stacksize for task 15: unlimited
  | Current stacksize for task 16: unlimited
  | Current stacksize for task 17: unlimited
  | Current stacksize for task 18: unlimited
  | Current stacksize for task 19: unlimited
  | Current stacksize for task 20: unlimited
  | Current stacksize for task 21: unlimited
  | Current stacksize for task 22: unlimited
  | Current stacksize for task 23: unlimited
  | Current stacksize for task 24: unlimited
  | Current stacksize for task 25: unlimited
  | Current stacksize for task 26: unlimited
  | Current stacksize for task 27: unlimited
  | Current stacksize for task 28: unlimited
  | Current stacksize for task 29: unlimited
  | Current stacksize for task 30: unlimited
  | Current stacksize for task 31: unlimited
  | Current stacksize for task 32: unlimited
  | Current stacksize for task 33: unlimited
  | Current stacksize for task 34: unlimited
  | Current stacksize for task 35: unlimited
  | Current stacksize for task 36: unlimited
  | Current stacksize for task 37: unlimited
  | Current stacksize for task 38: unlimited
  | Current stacksize for task 39: unlimited
  | Current stacksize for task 40: unlimited
  | Current stacksize for task 41: unlimited
  | Current stacksize for task 42: unlimited
  | Current stacksize for task 43: unlimited
  | Current stacksize for task 44: unlimited
  | Current stacksize for task 45: unlimited
  | Current stacksize for task 46: unlimited
  | Current stacksize for task 47: unlimited
  | Current stacksize for task 48: unlimited
  | Current stacksize for task 49: unlimited
  | Current stacksize for task 50: unlimited
  | Current stacksize for task 51: unlimited
  | Current stacksize for task 52: unlimited
  | Current stacksize for task 53: unlimited
  | Current stacksize for task 54: unlimited
  | Current stacksize for task 55: unlimited
  | Current stacksize for task 56: unlimited
  | Current stacksize for task 57: unlimited
  | Current stacksize for task 58: unlimited
  | Current stacksize for task 59: unlimited
  | Current stacksize for task 60: unlimited
  | Current stacksize for task 61: unlimited
  | Current stacksize for task 62: unlimited
  | Current stacksize for task 63: unlimited
  | Current stacksize for task 64: unlimited
  | Current stacksize for task 65: unlimited
  | Current stacksize for task 66: unlimited
  | Current stacksize for task 67: unlimited
  | Current stacksize for task 68: unlimited
  | Current stacksize for task 69: unlimited
  | Current stacksize for task 70: unlimited
  | Current stacksize for task 71: unlimited
  | Current stacksize for task 72: unlimited
  | Current stacksize for task 73: unlimited
  | Current stacksize for task 74: unlimited
  | Current stacksize for task 75: unlimited
  | Current stacksize for task 76: unlimited
  | Current stacksize for task 77: unlimited
  | Current stacksize for task 78: unlimited
  | Current stacksize for task 79: unlimited
  | Current stacksize for task 80: unlimited
  | Current stacksize for task 81: unlimited
  | Current stacksize for task 82: unlimited
  | Current stacksize for task 83: unlimited
  | Current stacksize for task 84: unlimited
  | Current stacksize for task 85: unlimited
  | Current stacksize for task 86: unlimited
  | Current stacksize for task 87: unlimited
  | Current stacksize for task 88: unlimited
  | Current stacksize for task 89: unlimited
  | Current stacksize for task 90: unlimited
  | Current stacksize for task 91: unlimited
  | Current stacksize for task 92: unlimited
  | Current stacksize for task 93: unlimited
  | Current stacksize for task 94: unlimited
  | Current stacksize for task 95: unlimited
  | Current stacksize for task 96: unlimited
  | Current stacksize for task 97: unlimited
  | Current stacksize for task 98: unlimited
  | Current stacksize for task 99: unlimited
  | Current stacksize for task 100: unlimited
  | Current stacksize for task 101: unlimited
  | Current stacksize for task 102: unlimited
  | Current stacksize for task 103: unlimited
  | Current stacksize for task 104: unlimited
  | Current stacksize for task 105: unlimited
  | Current stacksize for task 106: unlimited
  | Current stacksize for task 107: unlimited
  | Current stacksize for task 108: unlimited
  | Current stacksize for task 109: unlimited
  | Current stacksize for task 110: unlimited
  | Current stacksize for task 111: unlimited
  | Current stacksize for task 112: unlimited
  | Current stacksize for task 113: unlimited
  | Current stacksize for task 114: unlimited
  | Current stacksize for task 115: unlimited
  | Current stacksize for task 116: unlimited
  | Current stacksize for task 117: unlimited
  | Current stacksize for task 118: unlimited
  | Current stacksize for task 119: unlimited
  | Current stacksize for task 120: unlimited
  | Current stacksize for task 121: unlimited
  | Current stacksize for task 122: unlimited
  | Current stacksize for task 123: unlimited
  | Current stacksize for task 124: unlimited
  | Current stacksize for task 125: unlimited
  | Current stacksize for task 126: unlimited
  | Current stacksize for task 127: unlimited

  Consistency checks for the contents of control.in are next.

  MPI_IN_PLACE appears to work with this MPI implementation.
  | Keeping use_mpi_in_place .true. (see manual).
  Explicit treatment of the Coulomb operator is needed, but the RI method is not specified.
  Coulomb operator: Defaulting to 'RI-V' resolution of identity - RI_type = V
  Species O: Using default value for prodbas_acc =   1.000000E-02.
  Species O: Using default value max_l_prodbas =     5.
  Species Mg: Using default value for prodbas_acc =   1.000000E-03.
  Species Mg: Using default value max_l_prodbas =     5.
 * Species O: Specified min. number of angular integration points is   110
 * The angular momenta for this species require   194 for RI_type 'V'. Increasing angular_min to   194.
 * Species O: Grid shell     1 contains only   110 angular integration points.
 * Increasing to angular_min =   194 integration points.
 * This change is related to the three-center integrals used in RI_method 'V'.
  Target number of points in a grid batch is not set. Defaulting to  100
  Method for grid partitioning is not set. Defaulting to parallel hash+maxmin partitioning.
  Batch size limit is not set. Defaulting to    200
  By default, will store active basis functions for each batch.
  If in need of memory, prune_basis_once .false. can be used to disable this option.
  communication_type for Hartree potential was not specified.
  Defaulting to calc_hartree .
  Pulay mixer: Number of initial linear mixing iterations not set.
  Defaulting to    0 iterations.
  Work space size for distributed Hartree potential not set.
  Defaulting to   0.200000E+03 MB.
  Algorithm-dependent basis array size parameters:
  | n_max_pulay                         :       10
  Presetting      1001 iterations before the initial mixing cycle
  is restarted anyway using the sc_init_iter criterion / keyword.
  Presetting a factor      1.000 between actual scf density residual
  and density convergence criterion sc_accuracy_rho below which sc_init_iter
  takes no effect.
  Calculation of forces was not defined in control.in. No forces will be calculated.
  Geometry relaxation not requested: no relaxation will be performed.
  No accuracy limit for integral partition fn. given. Defaulting to  0.1000E-14.
  No threshold value for u(r) in integrations given. Defaulting to  0.1000E-05.
  No accuracy for occupation numbers given. Defaulting to  0.1000E-12.
  No threshold value for occupation numbers given. Defaulting to  0.0000E+00.
  No accuracy for fermi level given. Defaulting to  0.1000E-19.
  Maximum # of iterations to find E_F not set. Defaulting to  200.
  Will not use alltoall communication since running on < 1024 CPUs.
  Partitioning for Hartree potential was not defined. Using partition_type for integrals.
  | Reporting present value of keyword multip_moments_threshold  :       0.10000000E-09
  | This value may affect high angular momentum components of the Hartree potential in periodic systems.
  * Doing correlated calculations, so all empty single-particle states will be included.
  No q(lm)/r^(l+1) cutoff set for long-range Hartree potential.
  | Using default value of  0.100000E-09 .
  | Verify using the multipole_threshold keyword.
  Defaulting to new monopole extrapolation.
  Density update method: density matrix based density update selected.
  Charge integration errors on the 3D integration grid will be compensated
  by explicit normalization and distribution of residual charges.
  Use the "compensate_multipole_errors" flag to change this behaviour.
  Default to 1D ("use_logsbt") integrations for auxiliary 2-center integrals.
  Default onset of logarithmic r-grid for SBT is -38.000000000000
  Default onset of logarithmic k-grid for SBT is -25.000000000000
  Default range of logarithmic r- and k-grid for SBT is  45.000000000000
  Default number of logarithmic r- and k-grid for SBT is   4096
  *** Contour Deformation: Only support 2D parallization. Switching.
  Set 'collect_eigenvectors' to be '.true.' for GW/RPA/MP2, SCREX/COHSEX cluster calculations
  Set 'collect_eigenvectors' to be '.true.' for qpe_calc (quasiparticle energy).
  Set 'collect_eigenvectors' to be '.true.' for KS_method lapack_fast and serial.

  Consistency checks for the contents of geometry.in are next.

 * Attention. You are trying to treat an element beyond Ne (Z=10) without
 * accounting for relativity. This will lead to slight deviations from the true
 * physics of the system. Check your results if in doubt.
  Number of empty states per atom not set in control.in .
  | Since you are using a method that relies on the unoccupied spectrum
  | (MP2,GW,RPA et al.), will use the full Hamiltonian size (see below)
  | as the max. possible number of states (occupied plus empty).

  Structure-dependent array size parameters: 
  | Maximum number of distinct radial functions  :       36
  | Maximum number of basis functions            :      108
  | Number of Kohn-Sham states (occupied + empty):      108
------------------------------------------------------------

------------------------------------------------------------
          Preparing all fixed parts of the calculation.
------------------------------------------------------------
  Determining machine precision:
     2.2250738585072014E-308
  Setting up grids for atomic and cluster calculations.

  Creating wave function, potential, and density for free atoms.
  Runtime choices for atomic solver:
  | atomic solver xc        : PBE
  | compute density gradient: 1
  | compute kinetic density : F

  Species: O

  List of occupied orbitals and eigenvalues:
    n    l              occ      energy [Ha]    energy [eV]
    1    0           2.0000       -18.898644      -514.2583
    2    0           2.0000        -0.878848       -23.9147
    2    1           4.0000        -0.332128        -9.0377


  Species: Mg

  List of occupied orbitals and eigenvalues:
    n    l              occ      energy [Ha]    energy [eV]
    1    0           2.0000       -46.200856     -1257.1892
    2    0           2.0000        -2.923481       -79.5520
    3    0           2.0000        -0.172681        -4.6989
    2    1           6.0000        -1.714563       -46.6556


  Adding cutoff potential to free-atom effective potential.
  Creating fixed part of basis set: Ionic, confined, hydrogenic.

  O                    Gaussian:

  List of cartesian Gaussian basis orbitals: 
    L    l
    0    0
    0    0
    0    0
    0    0
    0    0
    0    0
    0    0
    1    1
    1    1
    1    1
    1    1
    2    2
    2    2
    2    2
    3    3
    3    3
    4    4


  Mg                   Gaussian:

  List of cartesian Gaussian basis orbitals: 
    L    l
    0    0
    0    0
    0    0
    0    0
    0    0
    0    0
    0    0
    0    0
    0    0
    1    1
    1    1
    1    1
    1    1
    1    1
    2    2
    2    2
    2    2
    2    2
    3    3

  Creating atomic-like basis functions for current effective potential.
  Assembling full basis from fixed parts.
  | Species O : gaussian orbital   0 s accepted.
  | Species O : gaussian orbital   0 s accepted.
  | Species O : gaussian orbital   0 s accepted.
  | Species O : gaussian orbital   0 s accepted.
  | Species O : gaussian orbital   0 s accepted.
  | Species O : gaussian orbital   0 s accepted.
  | Species O : gaussian orbital   0 s accepted.
  | Species O : gaussian orbital   1 p accepted.
  | Species O : gaussian orbital   1 p accepted.
  | Species O : gaussian orbital   1 p accepted.
  | Species O : gaussian orbital   1 p accepted.
  | Species O : gaussian orbital   2 d accepted.
  | Species O : gaussian orbital   2 d accepted.
  | Species O : gaussian orbital   2 d accepted.
  | Species O : gaussian orbital   3 f accepted.
  | Species O : gaussian orbital   3 f accepted.
  | Species O : gaussian orbital   4 g accepted.
  | Species Mg : gaussian orbital   0 s accepted.
  | Species Mg : gaussian orbital   0 s accepted.
  | Species Mg : gaussian orbital   0 s accepted.
  | Species Mg : gaussian orbital   0 s accepted.
  | Species Mg : gaussian orbital   0 s accepted.
  | Species Mg : gaussian orbital   0 s accepted.
  | Species Mg : gaussian orbital   0 s accepted.
  | Species Mg : gaussian orbital   0 s accepted.
  | Species Mg : gaussian orbital   0 s accepted.
  | Species Mg : gaussian orbital   1 p accepted.
  | Species Mg : gaussian orbital   1 p accepted.
  | Species Mg : gaussian orbital   1 p accepted.
  | Species Mg : gaussian orbital   1 p accepted.
  | Species Mg : gaussian orbital   1 p accepted.
  | Species Mg : gaussian orbital   2 d accepted.
  | Species Mg : gaussian orbital   2 d accepted.
  | Species Mg : gaussian orbital   2 d accepted.
  | Species Mg : gaussian orbital   2 d accepted.
  | Species Mg : gaussian orbital   3 f accepted.

  Basis size parameters after reduction:
  | Total number of radial functions:       36
  | Total number of basis functions :      108

  Per-task memory consumption for arrays in subroutine allocate_ext:
  |           9.225336MB.
  Testing on-site integration grid accuracy.
  |  Species  Function  <phi|h_atom|phi> (log., in eV)  <phi|h_atom|phi> (rad., in eV)
           1        1               -362.5768878964               -362.5780591086
           1        2               5562.5547625713               5562.5382888066
           1        3               1025.0233784559               1025.0223449092
           1        4                982.4978511341                982.4966498750
           1        5                433.1899307944                433.1894895256
           1        6                211.6154267980                211.6152499414
           1        7                 95.6225149986                 95.6224483249
           1        8                 18.1342168000                 18.1342169346
           1        9                 65.5300295478                 65.5300294570
           1       10                 49.0580174448                 49.0580169131
           1       11                 26.6733000437                 26.6732994262
           1       12                218.9177453526                218.9177448197
           1       13                147.8581850346                147.8581836466
           1       14                 71.7831007132                 71.7830993621
           1       15                249.7504167360                249.7504160676
           1       16                120.9441017008                120.9441003847
           1       17                235.2477364771                235.2477349267
           2       18              -1229.7975890472              -1229.7898752665
           2       19               2215.2013576793               2215.2502782577 ***
           2       20               2087.0342164038               2087.0673488871 ***
           2       21               1070.8578998254               1070.8720399464
           2       22                597.7535279536                597.7600599678
           2       23                310.3851879515                310.3880049272
           2       24                 69.6408554567                 69.6413888686
           2       25                 37.6637154210                 37.6639616857
           2       26                 19.0771663094                 19.0772734205
           2       27                -46.3599063517                -46.3599061317
           2       28                 10.3810855350                 10.3810858445
           2       29                 18.4670537482                 18.4670536075
           2       30                 12.1891705804                 12.1891703236
           2       31                  6.5750727718                  6.5750718851
           2       32                187.0924752455                187.0924741568
           2       33                 50.8490115668                 50.8490117057
           2       34                 23.3942954031                 23.3942955728
           2       35                  7.0096673520                  7.0096673151
           2       36                 12.9897192755                 12.9897192113
 * Note: Onsite integrals marked "***" above are less accurate than
 * onsite_accuracy_threshold =    0.03000 eV. Usually, this is harmless.
 * When in doubt, tighten the "radial" and/or "radial_multiplier" flags to check.

  Preparing densities etc. for the partition functions (integrals / Hartree potential).

  Preparations completed.
  max(cpu_time)          :      0.197 s.
  Wall clock time (cpu1) :      0.202 s.
------------------------------------------------------------

  Initializing index lists of integration centers etc. from given atomic structure:
  | Number of centers in hartree potential         :         2
  | Number of centers in hartree multipole         :         2
  | Number of centers in electron density summation:         2
  | Number of centers in basis integrals           :         2
  | Number of centers in integrals                 :         2
  | Number of centers in hamiltonian               :         2

------------------------------------------------------------
          Begin self-consistency loop: Initialization.

          Date     :  20240515, Time     :  123126.128
------------------------------------------------------------
  * Using 128 tasks for Scalapack Eigenvalue solver.
  Detailed listing of tasks and assigned k-points:
  (for non-periodic systems, the "k-point" denotes an internal label only)
   Task     0 k-point     1 on n2cn0394.ab2021.local
   Task     1 k-point     1 on n2cn0394.ab2021.local
   Task     2 k-point     1 on n2cn0394.ab2021.local
   Task     3 k-point     1 on n2cn0394.ab2021.local
   Task     4 k-point     1 on n2cn0394.ab2021.local
   Task     5 k-point     1 on n2cn0394.ab2021.local
   Task     6 k-point     1 on n2cn0394.ab2021.local
   Task     7 k-point     1 on n2cn0394.ab2021.local
   Task     8 k-point     1 on n2cn0394.ab2021.local
   Task     9 k-point     1 on n2cn0394.ab2021.local
   Task    10 k-point     1 on n2cn0394.ab2021.local
   Task    11 k-point     1 on n2cn0394.ab2021.local
   Task    12 k-point     1 on n2cn0394.ab2021.local
   Task    13 k-point     1 on n2cn0394.ab2021.local
   Task    14 k-point     1 on n2cn0394.ab2021.local
   Task    15 k-point     1 on n2cn0394.ab2021.local
   Task    16 k-point     1 on n2cn0394.ab2021.local
   Task    17 k-point     1 on n2cn0394.ab2021.local
   Task    18 k-point     1 on n2cn0394.ab2021.local
   Task    19 k-point     1 on n2cn0394.ab2021.local
   Task    20 k-point     1 on n2cn0394.ab2021.local
   Task    21 k-point     1 on n2cn0394.ab2021.local
   Task    22 k-point     1 on n2cn0394.ab2021.local
   Task    23 k-point     1 on n2cn0394.ab2021.local
   Task    24 k-point     1 on n2cn0394.ab2021.local
   Task    25 k-point     1 on n2cn0394.ab2021.local
   Task    26 k-point     1 on n2cn0394.ab2021.local
   Task    27 k-point     1 on n2cn0394.ab2021.local
   Task    28 k-point     1 on n2cn0394.ab2021.local
   Task    29 k-point     1 on n2cn0394.ab2021.local
   Task    30 k-point     1 on n2cn0394.ab2021.local
   Task    31 k-point     1 on n2cn0394.ab2021.local
   Task    32 k-point     1 on n2cn0394.ab2021.local
   Task    33 k-point     1 on n2cn0394.ab2021.local
   Task    34 k-point     1 on n2cn0394.ab2021.local
   Task    35 k-point     1 on n2cn0394.ab2021.local
   Task    36 k-point     1 on n2cn0394.ab2021.local
   Task    37 k-point     1 on n2cn0394.ab2021.local
   Task    38 k-point     1 on n2cn0394.ab2021.local
   Task    39 k-point     1 on n2cn0394.ab2021.local
   Task    40 k-point     1 on n2cn0394.ab2021.local
   Task    41 k-point     1 on n2cn0394.ab2021.local
   Task    42 k-point     1 on n2cn0394.ab2021.local
   Task    43 k-point     1 on n2cn0394.ab2021.local
   Task    44 k-point     1 on n2cn0394.ab2021.local
   Task    45 k-point     1 on n2cn0394.ab2021.local
   Task    46 k-point     1 on n2cn0394.ab2021.local
   Task    47 k-point     1 on n2cn0394.ab2021.local
   Task    48 k-point     1 on n2cn0394.ab2021.local
   Task    49 k-point     1 on n2cn0394.ab2021.local
   Task    50 k-point     1 on n2cn0394.ab2021.local
   Task    51 k-point     1 on n2cn0394.ab2021.local
   Task    52 k-point     1 on n2cn0394.ab2021.local
   Task    53 k-point     1 on n2cn0394.ab2021.local
   Task    54 k-point     1 on n2cn0394.ab2021.local
   Task    55 k-point     1 on n2cn0394.ab2021.local
   Task    56 k-point     1 on n2cn0394.ab2021.local
   Task    57 k-point     1 on n2cn0394.ab2021.local
   Task    58 k-point     1 on n2cn0394.ab2021.local
   Task    59 k-point     1 on n2cn0394.ab2021.local
   Task    60 k-point     1 on n2cn0394.ab2021.local
   Task    61 k-point     1 on n2cn0394.ab2021.local
   Task    62 k-point     1 on n2cn0394.ab2021.local
   Task    63 k-point     1 on n2cn0394.ab2021.local
   Task    64 k-point     1 on n2cn0394.ab2021.local
   Task    65 k-point     1 on n2cn0394.ab2021.local
   Task    66 k-point     1 on n2cn0394.ab2021.local
   Task    67 k-point     1 on n2cn0394.ab2021.local
   Task    68 k-point     1 on n2cn0394.ab2021.local
   Task    69 k-point     1 on n2cn0394.ab2021.local
   Task    70 k-point     1 on n2cn0394.ab2021.local
   Task    71 k-point     1 on n2cn0394.ab2021.local
   Task    72 k-point     1 on n2cn0394.ab2021.local
   Task    73 k-point     1 on n2cn0394.ab2021.local
   Task    74 k-point     1 on n2cn0394.ab2021.local
   Task    75 k-point     1 on n2cn0394.ab2021.local
   Task    76 k-point     1 on n2cn0394.ab2021.local
   Task    77 k-point     1 on n2cn0394.ab2021.local
   Task    78 k-point     1 on n2cn0394.ab2021.local
   Task    79 k-point     1 on n2cn0394.ab2021.local
   Task    80 k-point     1 on n2cn0394.ab2021.local
   Task    81 k-point     1 on n2cn0394.ab2021.local
   Task    82 k-point     1 on n2cn0394.ab2021.local
   Task    83 k-point     1 on n2cn0394.ab2021.local
   Task    84 k-point     1 on n2cn0394.ab2021.local
   Task    85 k-point     1 on n2cn0394.ab2021.local
   Task    86 k-point     1 on n2cn0394.ab2021.local
   Task    87 k-point     1 on n2cn0394.ab2021.local
   Task    88 k-point     1 on n2cn0394.ab2021.local
   Task    89 k-point     1 on n2cn0394.ab2021.local
   Task    90 k-point     1 on n2cn0394.ab2021.local
   Task    91 k-point     1 on n2cn0394.ab2021.local
   Task    92 k-point     1 on n2cn0394.ab2021.local
   Task    93 k-point     1 on n2cn0394.ab2021.local
   Task    94 k-point     1 on n2cn0394.ab2021.local
   Task    95 k-point     1 on n2cn0394.ab2021.local
   Task    96 k-point     1 on n2cn0394.ab2021.local
   Task    97 k-point     1 on n2cn0394.ab2021.local
   Task    98 k-point     1 on n2cn0394.ab2021.local
   Task    99 k-point     1 on n2cn0394.ab2021.local
   Task   100 k-point     1 on n2cn0394.ab2021.local
   Task   101 k-point     1 on n2cn0394.ab2021.local
   Task   102 k-point     1 on n2cn0394.ab2021.local
   Task   103 k-point     1 on n2cn0394.ab2021.local
   Task   104 k-point     1 on n2cn0394.ab2021.local
   Task   105 k-point     1 on n2cn0394.ab2021.local
   Task   106 k-point     1 on n2cn0394.ab2021.local
   Task   107 k-point     1 on n2cn0394.ab2021.local
   Task   108 k-point     1 on n2cn0394.ab2021.local
   Task   109 k-point     1 on n2cn0394.ab2021.local
   Task   110 k-point     1 on n2cn0394.ab2021.local
   Task   111 k-point     1 on n2cn0394.ab2021.local
   Task   112 k-point     1 on n2cn0394.ab2021.local
   Task   113 k-point     1 on n2cn0394.ab2021.local
   Task   114 k-point     1 on n2cn0394.ab2021.local
   Task   115 k-point     1 on n2cn0394.ab2021.local
   Task   116 k-point     1 on n2cn0394.ab2021.local
   Task   117 k-point     1 on n2cn0394.ab2021.local
   Task   118 k-point     1 on n2cn0394.ab2021.local
   Task   119 k-point     1 on n2cn0394.ab2021.local
   Task   120 k-point     1 on n2cn0394.ab2021.local
   Task   121 k-point     1 on n2cn0394.ab2021.local
   Task   122 k-point     1 on n2cn0394.ab2021.local
   Task   123 k-point     1 on n2cn0394.ab2021.local
   Task   124 k-point     1 on n2cn0394.ab2021.local
   Task   125 k-point     1 on n2cn0394.ab2021.local
   Task   126 k-point     1 on n2cn0394.ab2021.local
   Task   127 k-point     1 on n2cn0394.ab2021.local
  Tasks:   128 split into     16 X      8 BLACS grid
  Calculating block size based on n_basis =          108  max_nprow =           16  max_npcol =            8
  ScaLAPACK block size set to:            4
  Allocating        0.001 MB for ovlp
  Allocating        0.001 MB for ham
  Allocating        0.001 MB for eigenvec
  Required Scalapack workspace - INTEGER:          822  REAL:          1121
  Partitioning the integration grid into batches with parallel hashing+maxmin method.
  | Number of batches:     1836
  | Maximal batch size:     200
  | Minimal batch size:       4
  | Average batch size:      85.867
  | Standard deviation of batch sizes:      31.219

  Integration load balanced across   128 MPI tasks.
  Work distribution over tasks is as follows:
  Task     0 has       1232 integration points.
  Task     1 has       1217 integration points.
  Task     2 has       1231 integration points.
  Task     3 has       1228 integration points.
  Task     4 has       1177 integration points.
  Task     5 has       1227 integration points.
  Task     6 has       1313 integration points.
  Task     7 has       1178 integration points.
  Task     8 has       1223 integration points.
  Task     9 has       1219 integration points.
  Task    10 has       1179 integration points.
  Task    11 has       1348 integration points.
  Task    12 has       1229 integration points.
  Task    13 has       1224 integration points.
  Task    14 has       1247 integration points.
  Task    15 has       1228 integration points.
  Task    16 has       1174 integration points.
  Task    17 has       1225 integration points.
  Task    18 has       1251 integration points.
  Task    19 has       1229 integration points.
  Task    20 has       1229 integration points.
  Task    21 has       1195 integration points.
  Task    22 has       1226 integration points.
  Task    23 has       1175 integration points.
  Task    24 has       1225 integration points.
  Task    25 has       1198 integration points.
  Task    26 has       1248 integration points.
  Task    27 has       1246 integration points.
  Task    28 has       1201 integration points.
  Task    29 has       1194 integration points.
  Task    30 has       1246 integration points.
  Task    31 has       1228 integration points.
  Task    32 has       1230 integration points.
  Task    33 has       1228 integration points.
  Task    34 has       1345 integration points.
  Task    35 has       1218 integration points.
  Task    36 has       1229 integration points.
  Task    37 has       1230 integration points.
  Task    38 has       1228 integration points.
  Task    39 has       1227 integration points.
  Task    40 has       1230 integration points.
  Task    41 has       1178 integration points.
  Task    42 has       1223 integration points.
  Task    43 has       1228 integration points.
  Task    44 has       1177 integration points.
  Task    45 has       1248 integration points.
  Task    46 has       1235 integration points.
  Task    47 has       1174 integration points.
  Task    48 has       1174 integration points.
  Task    49 has       1221 integration points.
  Task    50 has       1233 integration points.
  Task    51 has       1246 integration points.
  Task    52 has       1240 integration points.
  Task    53 has       1255 integration points.
  Task    54 has       1348 integration points.
  Task    55 has       1253 integration points.
  Task    56 has       1232 integration points.
  Task    57 has       1346 integration points.
  Task    58 has       1220 integration points.
  Task    59 has       1252 integration points.
  Task    60 has       1223 integration points.
  Task    61 has       1281 integration points.
  Task    62 has       1228 integration points.
  Task    63 has       1344 integration points.
  Task    64 has       1266 integration points.
  Task    65 has       1191 integration points.
  Task    66 has       1227 integration points.
  Task    67 has       1279 integration points.
  Task    68 has       1264 integration points.
  Task    69 has       1218 integration points.
  Task    70 has       1247 integration points.
  Task    71 has       1309 integration points.
  Task    72 has       1235 integration points.
  Task    73 has       1291 integration points.
  Task    74 has       1229 integration points.
  Task    75 has       1241 integration points.
  Task    76 has       1175 integration points.
  Task    77 has       1225 integration points.
  Task    78 has       1221 integration points.
  Task    79 has       1290 integration points.
  Task    80 has       1194 integration points.
  Task    81 has       1235 integration points.
  Task    82 has       1227 integration points.
  Task    83 has       1243 integration points.
  Task    84 has       1220 integration points.
  Task    85 has       1231 integration points.
  Task    86 has       1293 integration points.
  Task    87 has       1229 integration points.
  Task    88 has       1237 integration points.
  Task    89 has       1174 integration points.
  Task    90 has       1251 integration points.
  Task    91 has       1232 integration points.
  Task    92 has       1232 integration points.
  Task    93 has       1243 integration points.
  Task    94 has       1187 integration points.
  Task    95 has       1249 integration points.
  Task    96 has       1247 integration points.
  Task    97 has       1213 integration points.
  Task    98 has       1231 integration points.
  Task    99 has       1251 integration points.
  Task   100 has       1225 integration points.
  Task   101 has       1248 integration points.
  Task   102 has       1224 integration points.
  Task   103 has       1173 integration points.
  Task   104 has       1224 integration points.
  Task   105 has       1234 integration points.
  Task   106 has       1218 integration points.
  Task   107 has       1220 integration points.
  Task   108 has       1245 integration points.
  Task   109 has       1228 integration points.
  Task   110 has       1248 integration points.
  Task   111 has       1193 integration points.
  Task   112 has       1173 integration points.
  Task   113 has       1243 integration points.
  Task   114 has       1227 integration points.
  Task   115 has       1226 integration points.
  Task   116 has       1219 integration points.
  Task   117 has       1276 integration points.
  Task   118 has       1216 integration points.
  Task   119 has       1292 integration points.
  Task   120 has       1226 integration points.
  Task   121 has       1229 integration points.
  Task   122 has       1228 integration points.
  Task   123 has       1229 integration points.
  Task   124 has       1177 integration points.
  Task   125 has       1175 integration points.
  Task   126 has       1175 integration points.
  Task   127 has       1220 integration points.
  Initializing partition tables, free-atom densities, potentials, etc. across the integration grid (initialize_grid_storage).
  | Net number of integration points:   157652
  | of which are non-zero points    :   157652
  Renormalizing the initial density to the exact electron count on the 3D integration grid.
  | Initial density: Formal number of electrons (from input files) :      20.0000000000
  | Integrated number of electrons on 3D grid     :      19.9999999544
  | Charge integration error                      :      -0.0000000456
  | Normalization factor for density and gradient :       1.0000000023
  Renormalizing the free-atom superposition density to the exact electron count on the 3D integration grid.
  | Formal number of electrons (from input files) :      20.0000000000
  | Integrated number of electrons on 3D grid     :      19.9999999544
  | Charge integration error                      :      -0.0000000456
  | Normalization factor for density and gradient :       1.0000000023
  Obtaining max. number of non-zero basis functions in each batch (get_n_compute_maxes).
  | Maximal number of non-zero basis functions:      103 in task     0
  | Maximal number of non-zero basis functions:       97 in task     1
  | Maximal number of non-zero basis functions:      105 in task     2
  | Maximal number of non-zero basis functions:      103 in task     3
  | Maximal number of non-zero basis functions:       99 in task     4
  | Maximal number of non-zero basis functions:      102 in task     5
  | Maximal number of non-zero basis functions:       99 in task     6
  | Maximal number of non-zero basis functions:      102 in task     7
  | Maximal number of non-zero basis functions:       99 in task     8
  | Maximal number of non-zero basis functions:       99 in task     9
  | Maximal number of non-zero basis functions:      103 in task    10
  | Maximal number of non-zero basis functions:      103 in task    11
  | Maximal number of non-zero basis functions:       99 in task    12
  | Maximal number of non-zero basis functions:      105 in task    13
  | Maximal number of non-zero basis functions:       99 in task    14
  | Maximal number of non-zero basis functions:      103 in task    15
  | Maximal number of non-zero basis functions:      105 in task    16
  | Maximal number of non-zero basis functions:      101 in task    17
  | Maximal number of non-zero basis functions:      101 in task    18
  | Maximal number of non-zero basis functions:      102 in task    19
  | Maximal number of non-zero basis functions:      105 in task    20
  | Maximal number of non-zero basis functions:      103 in task    21
  | Maximal number of non-zero basis functions:      103 in task    22
  | Maximal number of non-zero basis functions:      103 in task    23
  | Maximal number of non-zero basis functions:       99 in task    24
  | Maximal number of non-zero basis functions:      102 in task    25
  | Maximal number of non-zero basis functions:      102 in task    26
  | Maximal number of non-zero basis functions:      103 in task    27
  | Maximal number of non-zero basis functions:      102 in task    28
  | Maximal number of non-zero basis functions:      104 in task    29
  | Maximal number of non-zero basis functions:      105 in task    30
  | Maximal number of non-zero basis functions:       99 in task    31
  | Maximal number of non-zero basis functions:      103 in task    32
  | Maximal number of non-zero basis functions:       99 in task    33
  | Maximal number of non-zero basis functions:       99 in task    34
  | Maximal number of non-zero basis functions:      103 in task    35
  | Maximal number of non-zero basis functions:      104 in task    36
  | Maximal number of non-zero basis functions:      103 in task    37
  | Maximal number of non-zero basis functions:      103 in task    38
  | Maximal number of non-zero basis functions:      103 in task    39
  | Maximal number of non-zero basis functions:      104 in task    40
  | Maximal number of non-zero basis functions:      105 in task    41
  | Maximal number of non-zero basis functions:      105 in task    42
  | Maximal number of non-zero basis functions:       99 in task    43
  | Maximal number of non-zero basis functions:      104 in task    44
  | Maximal number of non-zero basis functions:       99 in task    45
  | Maximal number of non-zero basis functions:      102 in task    46
  | Maximal number of non-zero basis functions:      105 in task    47
  | Maximal number of non-zero basis functions:      103 in task    48
  | Maximal number of non-zero basis functions:      102 in task    49
  | Maximal number of non-zero basis functions:      103 in task    50
  | Maximal number of non-zero basis functions:      103 in task    51
[...]
       3    2.0000      -86.4884      -46.0122      -29.2533       10.2262      -93.0211
       4    2.0000      -51.7319      -39.5085      -28.2520        5.9576      -57.0307
       5    2.0000      -51.7319      -39.5085      -28.2520        5.9576      -57.0307
       6    2.0000      -51.6726      -39.5013      -28.2351        5.9574      -56.9814
       7    2.0000      -22.1339      -24.7498      -16.6781        7.6133      -22.5923
       8    2.0000       -6.8716      -14.0751      -11.7754        0.8885       -8.2828
       9    2.0000       -6.0745      -17.6703      -13.5705        2.7151       -7.4591
      10    2.0000       -6.0745      -17.6703      -13.5705        2.7151       -7.4591
      11    0.0000       -3.5996       -4.3029       -6.7467       -0.5811       -1.7369
      12    0.0000       -0.6548       -1.1605       -3.0350       -0.6613        0.5585
      13    0.0000       -0.6548       -1.1605       -3.0350       -0.6613        0.5585
      14    0.0000        0.3661       -0.6585       -2.2337       -0.8275        1.1138
      15    0.0000        0.9891       -0.4170       -1.7463       -0.3878        1.9306
      16    0.0000        2.3218       -0.4784       -1.9366       -0.3364        3.4435
      17    0.0000        2.3218       -0.4784       -1.9366       -0.3364        3.4435
      18    0.0000        2.3824       -0.1919       -1.8169       -0.4960        3.5114
      19    0.0000        2.3824       -0.1919       -1.8169       -0.4960        3.5114
      20    0.0000        2.9828       -0.5283       -2.1053       -0.5220        4.0378
      21    0.0000        3.2575       -1.0874       -2.8560       -0.4713        4.5547
      22    0.0000        3.2575       -1.0874       -2.8560       -0.6662        4.3598
      23    0.0000        4.8578       -1.1134       -3.3756       -0.7314        6.3885
      24    0.0000        8.7811       -1.3110       -3.9493       -1.0609       10.3585
      25    0.0000       10.8975       -0.8135       -3.7878       -1.0215       12.8503
      26    0.0000       10.8975       -0.8135       -3.7878       -1.0100       12.8617
      27    0.0000       10.9458       -1.0098       -3.9643       -1.1816       12.7187
      28    0.0000       11.3277       -0.5817       -4.0069       -1.0467       13.7063
      29    0.0000       11.3277       -0.5817       -4.0069       -1.0534       13.6995
      30    0.0000       11.5100       -1.1767       -4.3717       -1.2638       13.4413
      31    0.0000       11.6762       -1.2949       -4.7196       -1.1504       13.9505
      32    0.0000       11.6762       -1.2949       -4.7196       -1.1844       13.9165
      33    0.0000       12.5926       -1.8487       -5.0126       -1.2967       14.4598
      34    0.0000       12.5926       -1.8487       -5.0126       -1.3079       14.4486
      35    0.0000       13.7407       -0.6784       -3.9854       -0.9115       16.1362
      36    0.0000       13.7407       -0.6784       -3.9854       -0.8627       16.1851
      37    0.0000       13.8226       -0.2161       -3.1847       -0.7381       16.0531
      38    0.0000       13.8226       -0.2161       -3.1847       -0.6975       16.0936
      39    0.0000       14.5201       -1.1752       -4.3715       -1.2802       16.4363
      40    0.0000       17.5742       -1.1174       -4.8183       -0.5374       20.7376
      41    0.0000       17.5742       -1.1174       -4.8183       -0.7909       20.4842
      42    0.0000       23.9748       -2.8428       -7.9218       -2.1243       26.9295
      43    0.0000       26.3829       -2.6711       -7.7003       -2.3315       29.0806
      44    0.0000       34.3420       -2.7524       -8.4098       -3.0422       36.9572
      45    0.0000       34.3420       -2.7524       -8.4098       -3.0324       36.9670
      46    0.0000       36.0401       -3.3076       -9.2475       -2.6547       39.3254
      47    0.0000       37.7361       -3.8093       -9.9858       -1.8644       42.0482
      48    0.0000       37.7361       -3.8093       -9.9858       -1.9825       41.9302
      49    0.0000       39.4197       -3.1613       -9.3637       -2.4832       43.1388
      50    0.0000       40.7445       -2.5793       -8.5178       -3.8917       42.7913
      51    0.0000       40.7445       -2.5793       -8.5178       -4.1185       42.5645
      52    0.0000       42.6245       -2.7196       -9.0276       -1.7776       47.1549
      53    0.0000       42.6245       -2.7196       -9.0275       -1.6573       47.2751
      54    0.0000       42.6627       -2.7982       -9.2908       -2.1185       47.0369
      55    0.0000       42.6627       -2.7982       -9.2908       -2.1820       46.9733
      56    0.0000       44.5166       -3.2406      -10.3696       -3.5008       48.1448
      57    0.0000       44.5166       -3.2406      -10.3696       -3.4990       48.1467
      58    0.0000       46.1400       -3.1810      -10.0264       -3.0835       49.9020
      59    0.0000       55.7520       -4.1283      -11.1645       -2.5911       60.1972
      60    0.0000       63.4225       -3.0553      -10.9890       -2.5550       68.8012
      61    0.0000       88.0828       -2.0353      -10.7281       -1.4927       95.2830
      62    0.0000       88.0828       -2.0353      -10.7281       -1.4759       95.2997
      63    0.0000       88.1615       -2.0265      -10.7456       -1.4190       95.4615
      64    0.0000       88.1615       -2.0265      -10.7456       -1.6750       95.2055
      65    0.0000       90.2108       -2.1878      -11.0678       -2.7241       96.3667
      66    0.0000       90.2108       -2.1878      -11.0678       -1.9366       97.1542
      67    0.0000       91.3399       -4.9586      -14.5557       -3.1377       97.7993
      68    0.0000      102.4966       -3.4808      -13.2286       -3.1614      109.0829
      69    0.0000      107.6695       -4.1135      -14.5597       -5.8096      112.3061
      70    0.0000      107.6695       -4.1135      -14.5597       -5.8001      112.3156
      71    0.0000      113.6089       -3.5980      -14.1383       -5.5632      118.5860
      72    0.0000      113.6089       -3.5980      -14.1383       -5.7723      118.3770
      73    0.0000      120.2112       -3.4175      -14.0681       -3.9228      126.9390
      74    0.0000      141.7583       -6.0134      -19.4884       -8.0165      147.2167
      75    0.0000      141.7583       -6.0134      -19.4884       -8.4197      146.8136
      76    0.0000      154.1590       -5.2354      -18.7242       -7.8318      159.8160
      77    0.0000      218.3080      -10.6116      -26.3530       -3.5356      230.5138
      78    0.0000      218.3080      -10.6116      -26.3530       -3.5737      230.4757
      79    0.0000      218.9505      -10.3251      -26.0101       -3.6519      230.9837
      80    0.0000      218.9505      -10.3251      -26.0101       -4.0392      230.5963
      81    0.0000      223.3744       -9.9462      -25.5719       -3.9162      235.0839
      82    0.0000      238.7896       -6.1001      -20.2908       -2.2051      250.7751
      83    0.0000      244.0056       -1.7714      -14.5464       -2.5672      254.2135
      84    0.0000      244.0056       -1.7714      -14.5464       -2.6877      254.0929
      85    0.0000      244.4674       -1.7943      -14.6044       -3.0694      254.2081
      86    0.0000      244.4674       -1.7943      -14.6044       -2.6330      254.6446
      87    0.0000      245.0457       -1.9342      -14.7782       -2.9338      254.9559
      88    0.0000      245.0457       -1.9342      -14.7782       -2.9556      254.9341
      89    0.0000      245.0598       -1.8326      -14.6891       -2.5462      255.3702
      90    0.0000      245.0598       -1.8326      -14.6891       -2.3561      255.5603
      91    0.0000      254.1685       -5.1924      -19.3430       -3.0897      265.2295
      92    0.0000      301.0708       -2.7141      -17.8984       -5.9086      310.3465
      93    0.0000      301.0708       -2.7141      -17.8984       -5.6578      310.5973
      94    0.0000      301.1033       -2.5965      -17.7000       -5.1976      311.0092
      95    0.0000      301.1033       -2.5965      -17.7000       -5.5458      310.6610
      96    0.0000      302.3688       -2.5321      -17.5896       -5.4360      311.9903
      97    0.0000      302.3688       -2.5321      -17.5896       -4.7581      312.6682
      98    0.0000      311.1280       -2.6535      -17.7325       -3.6466      322.5603
      99    0.0000      329.4958       -3.3989      -19.6804       -7.3097      338.4676
     100    0.0000      329.4961       -3.3988      -19.6804       -7.3552      338.4224
     101    0.0000      333.9365       -3.1197      -19.2641       -8.1003      341.9805
     102    0.0000      333.9365       -3.1197      -19.2641       -6.7048      343.3760
     103    0.0000      338.5538       -3.0779      -19.0972       -8.4387      346.1342
     104    0.0000      350.1716       -8.4132      -25.3908       -6.7231      360.4260
     105    0.0000      940.2528      -16.7425      -46.2615       -2.6792      967.0926
     106    0.0000     1286.2533      -13.7850      -47.0336       -2.7591     1316.7429
     107    0.0000     5330.2321      -29.6409     -108.0416       -3.1060     5405.5267
     108    0.0000     6865.1591      -15.6392      -94.6593       -1.1349     6943.0443
----------------------------------------------------------------------------------------

   DFT/Hartree-Fock HOMO level (eV):    -6.0745   -6.0745

   Quasiparticle HOMO level (eV):       -7.4591   -7.4591
----------------------------------------------------------------------------------------

  Printing out the self-energy matrix element: 10 for spin  1

------------------------------------------------------------------------------------------------------

  Start calculating the spectral function for state: 10

------------------------------------------------------------------------------------------------------

          | Total time for transforming the 3-center integrals :        0.305 s
          | Total time for calculating the exchange-correlation
                                  energy matrix elements   :        0.006 s
          | Total time for calculating polarisability     
                        for imaginary frequencies          :        6.384 s
          | Total time for calculating self energy 
                        on imaginary frequency axis        :      155.753 s
          | Total time for calculating the quasiparticle 
                  energies with analytic continuation      :        0.015 s
          | Total time for calculating the quasiparticle 
                  energies with contour deformation        :      187.196 s

------------------------------------------------------------------------------
  Final output of selected total energy values:

  The following output summarizes some interesting total energy values
  at the end of a run (AFTER all relaxation, molecular dynamics, etc.).

  | Total energy of the DFT / Hartree-Fock s.c.f. calculation      :          -7484.990880959 eV
  | Final zero-broadening corrected energy (caution - metals only) :          -7484.990880959 eV
  | For reference only, the value of 1 Hartree used in FHI-aims is :             27.211384500 eV

  Before relying on these values, please be sure to understand exactly which
  total energy value is referred to by a given number. Different objects may
  all carry the same name 'total energy'. Definitions:

  Total energy of the DFT / Hartree-Fock s.c.f. calculation:
  | Note that this energy does not include ANY quantities calculated after the
  | s.c.f. cycle, in particular not ANY RPA, MP2, etc. many-body perturbation terms.

  Final zero-broadening corrected energy:
  | For metallic systems only, a broadening of the occupation numbers at the Fermi
  | level can be extrapolated back to zero broadening by an electron-gas inspired
  | formula. For all systems that are not real metals, this value can be
  | meaningless and should be avoided.

------------------------------------------------------------------------------
  Methods described in the following list of references were used in this FHI-aims run.
  If you publish the results, please make sure to cite these reference if they apply.
  FHI-aims is an academic code, and for our developers (often, Ph.D. students
  and postdocs), scientific credit in the community is essential.
  Thank you for helping us!

  For any use of FHI-aims, please cite:

    Volker Blum, Ralf Gehrke, Felix Hanke, Paula Havu, Ville Havu,
    Xinguo Ren, Karsten Reuter, and Matthias Scheffler
    'Ab initio molecular simulations with numeric atom-centered orbitals'
    Computer Physics Communications 180, 2175-2196 (2009)
    http://doi.org/10.1016/j.cpc.2009.06.022


  For Hartree-Fock, hybrid functionals, or many-body perturbation theory used in your run, please cite:

    Xinguo Ren, Patrick Rinke, Volker Blum, Juergen Wieferink, Alex Tkatchenko,
    Andrea Sanfilippo, Karsten Reuter, and Matthias Scheffler,
    'Resolution-of-identity approach to Hartree-Fock, hybrid density functionals,
    RPA, MP2, and GW with numeric atom-centered orbital basis functions'
    New Journal of Physics 14, 053020 (2012).
    http://doi.org/10.1088/1367-2630/14/5/053020


  The ELSI infrastructure was used in your run to solve the Kohn-Sham electronic structure.
  Please check out http://elsi-interchange.org to learn more.
  If scalability is important for your project, please acknowledge ELSI by citing:

    V. W-z. Yu, F. Corsetti, A. Garcia, W. P. Huhn, M. Jacquelin, W. Jia,
    B. Lange, L. Lin, J. Lu, W. Mi, A. Seifitokaldani, A. Vazquez-Mayagoitia,
    C. Yang, H. Yang, and V. Blum
    'ELSI: A unified software interface for Kohn-Sham electronic structure solvers'
    Computer Physics Communications 222, 267-285 (2018).
    http://doi.org/10.1016/j.cpc.2017.09.007


  For the real-space grid partitioning and parallelization used in this calculation, please cite:

    Ville Havu, Volker Blum, Paula Havu, and Matthias Scheffler,
    'Efficient O(N) integration for all-electron electronic structure calculation'
    'using numerically tabulated basis functions'
    Journal of Computational Physics 228, 8367-8379 (2009).
    http://doi.org/10.1016/j.jcp.2009.08.008

  Of course, there are many other important community references, e.g., those cited in the
  above references. Our list is limited to references that describe implementations in the
  FHI-aims code. The reason is purely practical (length of this list) - please credit others as well.

 * Warning - angular integration grids had to be adjusted for use with RI_method 'V'.
 * Background: You are using an electronic structure method that requires RI_method 'V'
 * for the resolution of identity of the Coulomb operator. (See Ren et al.,
 * New J. Phys 2012 for details.) This method requires three-center integrations
 * to be carried out on FHI-aims' normal angular and radial integration grids.
 * (See FHI-aims CPC Blum et al. 2009, p. 2183 for grid details and references.)
 * One of the angular grids specified in your control.in file was not large
 * enough for the maximal angular momenta of orbital and product basis functions
 * for its species.
 * This can lead to atomic total energy errors which cancel in energy differences.
 * Effective Sep 22, 2014, we have changed the default behavior of the code to
 * simply 'upgrade' the angular grids internally to a safe setting in this case.
 * Please be sure to NOT mix total energies from before and after the change.

------------------------------------------------------------
          Leaving FHI-aims.
          Date     :  20240515, Time     :  124225.994

          Computational steps:
          | Number of self-consistency cycles          :           20
          | Number of SCF (re)initializations          :            1

          Detailed time accounting                     :  max(cpu_time)    wall_clock(cpu1)
          | Total time                                  :      654.897 s         660.863 s
          | Preparation time                            :        0.197 s           0.202 s
          | Boundary condition initalization            :        0.001 s           0.000 s
          | Grid partitioning                           :        0.064 s           0.064 s
          | Preloading free-atom quantities on grid     :        0.030 s           0.044 s
          | Free-atom superposition energy              :        0.020 s           0.020 s
          | Total time for integrations                 :        0.233 s           0.222 s
          | Product basis setup: Total time             :        3.925 s           4.121 s
          | Product basis: | 3-center integrations     :(       2.316 s)  (       2.326 s)
          | Product basis: | 2-center integrations     :(       0.110 s)  (       0.111 s)
          | Product basis: | 2-center linear algebra   :(       0.676 s)  (       0.690 s)
          | Product basis: | 3-center x 2-center       :(       0.587 s)  (       0.760 s)
          | Total time evaluating exchange matrix       :        0.136 s           0.135 s
          | Transforming ovlp_3fn to ovlp_3KS           :        0.305 s           0.306 s
          | Screened Coulomb matrix W_mn(iw)            :      162.341 s         163.113 s
          | Polarisability matrix Pi_PQ(iw)             :        6.384 s           6.384 s
          | Total time for GW calculation               :      647.181 s         652.435 s
          | GW self-energy (analytic cont.)             :      162.816 s         163.612 s
          | Contour def: | Solving qp equations         :      187.196 s         188.091 s
          | Contour def: | GW self-energy               :      482.868 s         484.619 s
          | Contour def: | Scr Coulomb matrix W_mn(w)   :      482.033 s         483.866 s
          | Contour def: | CD-WAC W_mn(w) and Pade      :        0.000 s           0.000 s
          | Contour def: | Scr aux Coulomb mat W_PQ(w)  :      373.379 s         375.014 s
          | Contour def: | Polarisability Pi_PQ(w)      :      184.176 s         183.664 s
          | Contour def: | Printing self-energy CD      :      288.173 s         289.599 s
          | Contour def: | Spectral function CD         :        8.791 s          10.685 s
          | Total time for solution of K.-S. equations  :        0.323 s           0.326 s
          | Total time for density update               :        0.280 s           0.280 s
          | Total time for mixing                       :        1.648 s           1.186 s
          | Total time for Hartree multipole update     :        0.130 s           0.129 s
          | Total time for Hartree multipole sum        :        0.154 s           0.160 s
          | Total time for total energy evaluation      :        0.007 s           0.007 s

          Partial memory accounting:
          | Residual value for overall tracked memory usage across tasks:     0.000000 MB (should be 0.000000 MB)
          | Peak values for overall tracked memory usage:
          |   Minimum:        1.191 MB (on task   1 after allocating gradient_basis_wave)
          |   Maximum:        1.277 MB (on task   2 after allocating gradient_basis_wave)
          |   Average:        1.246 MB
          | Largest tracked array allocation:
          |   Minimum:        0.444 MB (gradient_basis_wave on task   1)
          |   Maximum:        0.481 MB (gradient_basis_wave on task   2)
          |   Average:        0.468 MB
          Note:  These values currently only include a subset of arrays which are explicitly tracked.
          The "true" memory usage will be greater.

          Have a nice day.
------------------------------------------------------------
