 DBCSR| CPU Multiplication driver                                           XSMM (U)
 DBCSR| Multrec recursion limit                                              512 (U)
 DBCSR| Multiplication stack size                                           1000 (D)
 DBCSR| Maximum elements for images                                    UNLIMITED (U)
 DBCSR| Multiplicative factor virtual images                                   1 (U)
 DBCSR| Use multiplication densification                                       T (D)
 DBCSR| Multiplication size stacks                                             3 (U)
 DBCSR| Use memory pool for CPU allocation                                     F (U)
 DBCSR| Number of 3D layers                                               SINGLE (U)
 DBCSR| Use MPI memory allocation                                              F (U)
 DBCSR| Use RMA algorithm                                                      F (U)
 DBCSR| Use Communication thread                                               T (U)
 DBCSR| Communication thread load                                             75 (D)
 DBCSR| MPI: My process id                                                     0
 DBCSR| MPI: Number of processes                                               1
 DBCSR| OMP: Current number of threads                                         4
 DBCSR| OMP: Max number of threads                                             4
 DBCSR| Split modifier for TAS multiplication algorithm                  1.0E+00 (U)


  **** **** ******  **  PROGRAM STARTED AT               2024-05-02 19:07:06.819
 ***** ** ***  *** **   PROGRAM STARTED ON                 n2cn0786.ab2021.local
 **    ****   ******    PROGRAM STARTED BY                              eprop2d4
 ***** **    ** ** **   PROGRAM PROCESS ID                               1465378
  **** **  *******  **  PROGRAM STARTED IN /scratch/hpc-prf-eprop2d/eprop2d4_Mia
                                           /CP2K/SC_GW/LEV_10/Only_HOMO/4_MgO_PB
                                           E

 CP2K| version string:                 CP2K version 2024.1 (Development Version)
 CP2K| source code revision number:                                  git:629d267
 CP2K| cp2kflags: omp libint fftw3 libxc elpa parallel scalapack cosma xsmm plum
 CP2K|            ed2 spglib libvori libbqb libvdwxc
 CP2K| is freely available from                            https://www.cp2k.org/
 CP2K| Program compiled at                         Wed Apr 17 14:27:35 CEST 2024
 CP2K| Program compiled on                                              n2login1
 CP2K| Program compiled for                                                local
 CP2K| Data directory path    /opt/software/pc2/EB-SW/software/CP2K/2023.1-foss-
 CP2K| Input file name                                                    GW.inp

 GLOBAL| Force Environment number                                              1
 GLOBAL| Basis set file name                              BASIS_def2_QZVP_RI_ALL
 GLOBAL| Potential file name                                           POTENTIAL
 GLOBAL| MM Potential file name                                     MM_POTENTIAL
 GLOBAL| Coordinate file name                                      __STD_INPUT__
 GLOBAL| Method name                                                        CP2K
 GLOBAL| Project name                                                   ALL_ELEC
 GLOBAL| Run type                                                         ENERGY
 GLOBAL| FFT library                                                       FFTW3
 GLOBAL| Diagonalization library                                            ELPA
 GLOBAL| DGEMM library                                                      BLAS
 GLOBAL| Minimum number of eigenvectors for ELPA usage                        16
 GLOBAL| Orthonormality check for eigenvectors                          DISABLED
 GLOBAL| Matrix multiplication library                                     COSMA
 GLOBAL| All-to-all communication in single precision                          F
 GLOBAL| FFTs using library dependent lengths                                  F
 GLOBAL| Grid backend                                                       AUTO
 GLOBAL| Global print level                                               MEDIUM
 GLOBAL| MPI I/O enabled                                                       T
 GLOBAL| Total number of message passing processes                             1
 GLOBAL| Number of threads for this process                                    4
 GLOBAL| This output is from process                                           0
 GLOBAL| Stack size for threads created by OpenMP (OMP_STACKSIZE)        default
 GLOBAL| CPU model name                          AMD EPYC 7763 64-Core Processor
 GLOBAL| CPUID                                                              1002
 GLOBAL| Compiled for CPUID                                                    0

 *** HINT in environment.F:920 :: The compiler target flags (generic) used ***
 *** to build this binary cannot exploit all extensions of this CPU model  ***
 *** (x86_avx2). Consider compiler target flags as part of FCFLAGS and     ***
 *** CFLAGS (ARCH file).                                                   ***


 MEMORY| system memory details [Kb]
 MEMORY|                        rank 0           min           max       average
 MEMORY| MemTotal            263899264     263899264     263899264     263899264
 MEMORY| MemFree             253630312     253630312     253630312     253630312
 MEMORY| Buffers                273184        273184        273184        273184
 MEMORY| Cached                4406612       4406612       4406612       4406612
 MEMORY| Slab                  2159628       2159628       2159628       2159628
 MEMORY| SReclaimable           262576        262576        262576        262576
 MEMORY| MemLikelyFree       258572684     258572684     258572684     258572684


 *** Fundamental physical constants (SI units) ***

 *** Literature: B. J. Mohr and B. N. Taylor,
 ***             CODATA recommended values of the fundamental physical
 ***             constants: 2006, Web Version 5.1
 ***             http://physics.nist.gov/constants

 Speed of light in vacuum [m/s]                             2.99792458000000E+08
 Magnetic constant or permeability of vacuum [N/A**2]       1.25663706143592E-06
 Electric constant or permittivity of vacuum [F/m]          8.85418781762039E-12
 Planck constant (h) [J*s]                                  6.62606896000000E-34
 Planck constant (h-bar) [J*s]                              1.05457162825177E-34
 Elementary charge [C]                                      1.60217648700000E-19
 Electron mass [kg]                                         9.10938215000000E-31
 Electron g factor [ ]                                     -2.00231930436220E+00
 Proton mass [kg]                                           1.67262163700000E-27
 Fine-structure constant                                    7.29735253760000E-03
 Rydberg constant [1/m]                                     1.09737315685270E+07
 Avogadro constant [1/mol]                                  6.02214179000000E+23
 Boltzmann constant [J/K]                                   1.38065040000000E-23
 Atomic mass unit [kg]                                      1.66053878200000E-27
 Bohr radius [m]                                            5.29177208590000E-11

 *** Conversion factors ***

 [u] -> [a.u.]                                              1.82288848426455E+03
 [Angstrom] -> [Bohr] = [a.u.]                              1.88972613288564E+00
 [a.u.] = [Bohr] -> [Angstrom]                              5.29177208590000E-01
 [a.u.] -> [s]                                              2.41888432650478E-17
 [a.u.] -> [fs]                                             2.41888432650478E-02
 [a.u.] -> [J]                                              4.35974393937059E-18
 [a.u.] -> [N]                                              8.23872205491840E-08
 [a.u.] -> [K]                                              3.15774647902944E+05
 [a.u.] -> [kJ/mol]                                         2.62549961709828E+03
 [a.u.] -> [kcal/mol]                                       6.27509468713739E+02
 [a.u.] -> [Pa]                                             2.94210107994716E+13
 [a.u.] -> [bar]                                            2.94210107994716E+08
 [a.u.] -> [atm]                                            2.90362800883016E+08
 [a.u.] -> [eV]                                             2.72113838565563E+01
 [a.u.] -> [Hz]                                             6.57968392072181E+15
 [a.u.] -> [1/cm] (wave numbers)                            2.19474631370540E+05
 [a.u./Bohr**2] -> [1/cm]                                   5.14048714338585E+03
 

 CELL_TOP| Volume [angstrom^3]:                                      8000.000000
 CELL_TOP| Vector a [angstrom    20.000     0.000     0.000   |a| =    20.000000
 CELL_TOP| Vector b [angstrom     0.000    20.000     0.000   |b| =    20.000000
 CELL_TOP| Vector c [angstrom     0.000     0.000    20.000   |c| =    20.000000
 CELL_TOP| Angle (b,c), alpha [degree]:                                90.000000
 CELL_TOP| Angle (a,c), beta  [degree]:                                90.000000
 CELL_TOP| Angle (a,b), gamma [degree]:                                90.000000
 CELL_TOP| Numerically orthorhombic:                                         YES
 CELL_TOP| Periodicity                                                      NONE

 GENERATE|  Preliminary Number of Bonds generated:                             0
 GENERATE|  Achieved consistency in connectivity generation.

 CELL| Volume [angstrom^3]:                                          8000.000000
 CELL| Vector a [angstrom]:      20.000     0.000     0.000   |a| =    20.000000
 CELL| Vector b [angstrom]:       0.000    20.000     0.000   |b| =    20.000000
 CELL| Vector c [angstrom]:       0.000     0.000    20.000   |c| =    20.000000
 CELL| Angle (b,c), alpha [degree]:                                    90.000000
 CELL| Angle (a,c), beta  [degree]:                                    90.000000
 CELL| Angle (a,b), gamma [degree]:                                    90.000000
 CELL| Numerically orthorhombic:                                             YES
 CELL| Periodicity                                                          NONE

 CELL_REF| Volume [angstrom^3]:                                      8000.000000
 CELL_REF| Vector a [angstrom    20.000     0.000     0.000   |a| =    20.000000
 CELL_REF| Vector b [angstrom     0.000    20.000     0.000   |b| =    20.000000
 CELL_REF| Vector c [angstrom     0.000     0.000    20.000   |c| =    20.000000
 CELL_REF| Angle (b,c), alpha [degree]:                                90.000000
 CELL_REF| Angle (a,c), beta  [degree]:                                90.000000
 CELL_REF| Angle (a,b), gamma [degree]:                                90.000000
 CELL_REF| Numerically orthorhombic:                                         YES
 CELL_REF| Periodicity                                                      NONE

 *******************************************************************************
 *******************************************************************************
 **                                                                           **
 **     #####                         ##              ##                      **
 **    ##   ##            ##          ##              ##                      **
 **   ##     ##                       ##            ######                    **
 **   ##     ##  ##   ##  ##   #####  ##  ##   ####   ##    #####    #####    **
 **   ##     ##  ##   ##  ##  ##      ## ##   ##      ##   ##   ##  ##   ##   **
 **   ##  ## ##  ##   ##  ##  ##      ####     ###    ##   ######   ######    **
 **    ##  ###   ##   ##  ##  ##      ## ##      ##   ##   ##       ##        **
 **     #######   #####   ##   #####  ##  ##  ####    ##    #####   ##        **
 **           ##                                                    ##        **
 **                                                                           **
 **                                                ... make the atoms dance   **
 **                                                                           **
 **            Copyright (C) by CP2K developers group (2000-2024)             **
 **                      J. Chem. Phys. 152, 194103 (2020)                    **
 **                                                                           **
 *******************************************************************************

 *** WARNING in qs_environment.F:937 :: Low-scaling RPA requires        ***
 *** SORT_BASIS EXP keyword (in DFT input section) for good performance ***


 DFT| Spin restricted Kohn-Sham (RKS) calculation                            RKS
 DFT| Multiplicity                                                             1
 DFT| Number of spin states                                                    1
 DFT| Charge                                                                   0
 DFT| Self-interaction correction (SIC)                                       NO
 DFT| Cutoffs: density                                              1.000000E-10
 DFT|          gradient                                             1.000000E-10
 DFT|          tau                                                  1.000000E-10
 DFT|          cutoff_smoothing_range                               0.000000E+00
 DFT| XC density smoothing                                                  NONE
 DFT| XC derivatives                                                          PW

 FUNCTIONAL| PBE:
 FUNCTIONAL| J.P.Perdew, K.Burke, M.Ernzerhof, Phys. Rev. Letter, vol. 77, n 18,
 FUNCTIONAL|  pp. 3865-3868, (1996) {spin unpolarized}                          


 QS| Method:                                                                GAPW
 QS| Density plane wave grid type                        NON-SPHERICAL FULLSPACE
 QS| Number of grid levels:                                                    4
 QS| Density cutoff [a.u.]:                                                200.0
 QS| Multi grid cutoff [a.u.]: 1) grid level                               200.0
 QS|                           2) grid level                                66.7
 QS|                           3) grid level                                22.2
 QS|                           4) grid level                                 7.4
 QS| Grid level progression factor:                                          3.0
 QS| Relative density cutoff [a.u.]:                                        25.0
 QS| Interaction thresholds: eps_pgf_orb:                                1.0E-05
 QS|                         eps_filter_matrix:                          0.0E+00
 QS|                         eps_core_charge:                            1.0E-12
 QS|                         eps_rho_gspace:                             1.0E-10
 QS|                         eps_rho_rspace:                             1.0E-10
 QS|                         eps_gvg_rspace:                             1.0E-05
 QS|                         eps_ppl:                                    1.0E-02
 QS|                         eps_ppnl:                                   1.0E-07
 QS| GAPW|      One center basis from orbital basis primitives
 QS| GAPW|                   eps_fit:                                    1.0E-04
 QS| GAPW|                   eps_iso:                                    1.0E-12
 QS| GAPW|                   eps_svd:                                    1.0E-08
 QS| GAPW|                   eps_cpc:                                    1.0E-10
 QS| GAPW|   atom-r-grid: quadrature:                                     GC_LOG
 QS| GAPW|      atom-s-grid:  max l :                                          8
 QS| GAPW|      max_l_rho0 :                                                   2


 ATOMIC KIND INFORMATION

  1. Atomic kind: Mg                                    Number of atoms:       1

     Orbital Basis Set                                                 def2-QZVP

       Number of orbital shell sets:                                          19
       Number of orbital shells:                                              19
       Number of primitive Cartesian functions:                               37
       Number of Cartesian basis functions:                                   58
       Number of spherical basis functions:                                   51
       Norm type:                                                              2

       Normalised Cartesian orbitals:

                        Set   Shell   Orbital            Exponent    Coefficient

                          1       1    1s           605967.787530       0.257226
                                                     90569.094692       0.482047
                                                     20574.252844       0.835599
                                                      5818.628486       1.366366
                                                      1895.629608       2.127534
                                                       683.459410       3.135466
                                                       266.182198       4.276339
                                                       110.112200       5.096899
                                                        47.777041       4.796221
                                                        21.542166       2.874698

                          2       1    1s              174.121364       0.987018
                                                        53.484972       3.401293
                                                        20.500213       5.290746

                          3       1    1s                9.805683       3.949285

                          4       1    1s                3.540299       1.839459

                          5       1    1s                1.545085       0.987698

                          6       1    1s                0.665402       0.525077

                          7       1    1s                0.143554       0.166216

                          8       1    1s                0.066625       0.093462

                          9       1    1s                0.029773       0.051083

                         10       1    1px             893.204608       2.515826
                                                       211.782583       3.549722
                                                        68.443201       4.502320
                                                        25.727265       4.916948
                                                        10.606634       4.403779
                                                         4.593413       2.897035
                                                         2.010047       1.312849
                                                         0.873848       0.343401
                         10       1    1py             893.204608       2.515826
                                                       211.782583       3.549722
                                                        68.443201       4.502320
                                                        25.727265       4.916948
                                                        10.606634       4.403779
                                                         4.593413       2.897035
                                                         2.010047       1.312849
                                                         0.873848       0.343401
                         10       1    1pz             893.204608       2.515826
                                                       211.782583       3.549722
                                                        68.443201       4.502320
                                                        25.727265       4.916948
                                                        10.606634       4.403779
                                                         4.593413       2.897035
                                                         2.010047       1.312849
                                                         0.873848       0.343401

                         11       1    1px               0.356151       0.392177
                         11       1    1py               0.356151       0.392177
                         11       1    1pz               0.356151       0.392177

                         12       1    1px               0.189960       0.178758
                         12       1    1py               0.189960       0.178758
                         12       1    1pz               0.189960       0.178758

                         13       1    1px               0.074580       0.055554
                         13       1    1py               0.074580       0.055554
                         13       1    1pz               0.074580       0.055554

                         14       1    1px               0.029222       0.017221
                         14       1    1py               0.029222       0.017221
                         14       1    1pz               0.029222       0.017221

                         15       1    1dx2              3.810000      17.101262
                         15       1    1dxy              3.810000      29.620255
                         15       1    1dxz              3.810000      29.620255
                         15       1    1dy2              3.810000      17.101262
                         15       1    1dyz              3.810000      29.620255
                         15       1    1dz2              3.810000      17.101262

                         16       1    1dx2              0.650000       0.774476
                         16       1    1dxy              0.650000       1.341431
                         16       1    1dxz              0.650000       1.341431
                         16       1    1dy2              0.650000       0.774476
                         16       1    1dyz              0.650000       1.341431
                         16       1    1dz2              0.650000       0.774476

                         17       1    1dx2              0.200000       0.098449
                         17       1    1dxy              0.200000       0.170519
                         17       1    1dxz              0.200000       0.170519
                         17       1    1dy2              0.200000       0.098449
                         17       1    1dyz              0.200000       0.170519
                         17       1    1dz2              0.200000       0.098449

                         18       1    1dx2              0.052000       0.009320
                         18       1    1dxy              0.052000       0.016143
                         18       1    1dxz              0.052000       0.016143
                         18       1    1dy2              0.052000       0.009320
                         18       1    1dyz              0.052000       0.016143
                         18       1    1dz2              0.052000       0.009320

                         19       1    1fx3              0.160000       0.023836
                         19       1    1fx2y             0.160000       0.053298
                         19       1    1fx2z             0.160000       0.053298
                         19       1    1fxy2             0.160000       0.053298
                         19       1    1fxyz             0.160000       0.092315
                         19       1    1fxz2             0.160000       0.053298
                         19       1    1fy3              0.160000       0.023836
                         19       1    1fy2z             0.160000       0.053298
                         19       1    1fyz2             0.160000       0.053298
                         19       1    1fz3              0.160000       0.023836

     RI Auxiliary Basis Set                                                RI-5Z

       Number of orbital shell sets:                                          48
       Number of orbital shells:                                              48
       Number of primitive Cartesian functions:                               48
       Number of Cartesian basis functions:                                  335
       Number of spherical basis functions:                                  230
       Norm type:                                                              2

       Normalised Cartesian orbitals:

                        Set   Shell   Orbital            Exponent    Coefficient

                          1       1    1s              540.416000      79.883345

                          2       1    1s              102.127000      22.896311

                          3       1    1s               43.111400      11.990966

                          4       1    1s               13.476700       5.013001

                          5       1    1s                7.375560       3.189748

                          6       1    1s                2.606800       1.462146

                          7       1    1s                1.298970       0.867180

                          8       1    1s                0.584075       0.476169

                          9       1    1s                0.330108       0.310386

                         10       1    1s                0.180505       0.197368

                         11       1    1s                0.119148       0.144536

                         12       1    1s                0.069145       0.096101

                         13       1    1px             123.479000     586.720777
                         13       1    1py             123.479000     586.720777
                         13       1    1pz             123.479000     586.720777

                         14       1    1px              33.483200     114.808432
                         14       1    1py              33.483200     114.808432
                         14       1    1pz              33.483200     114.808432

                         15       1    1px              12.336600      32.955996
                         15       1    1py              12.336600      32.955996
                         15       1    1pz              12.336600      32.955996

                         16       1    1px               5.613380      12.316027
                         16       1    1py               5.613380      12.316027
                         16       1    1pz               5.613380      12.316027

                         17       1    1px               2.423950       4.311165
                         17       1    1py               2.423950       4.311165
                         17       1    1pz               2.423950       4.311165

                         18       1    1px               1.157890       1.712081
                         18       1    1py               1.157890       1.712081
                         18       1    1pz               1.157890       1.712081

                         19       1    1px               0.531815       0.647352
                         19       1    1py               0.531815       0.647352
                         19       1    1pz               0.531815       0.647352

                         20       1    1px               0.293408       0.307808
                         20       1    1py               0.293408       0.307808
                         20       1    1pz               0.293408       0.307808

                         21       1    1px               0.194135       0.183683
                         21       1    1py               0.194135       0.183683
                         21       1    1pz               0.194135       0.183683

                         22       1    1px               0.130156       0.111435
                         22       1    1py               0.130156       0.111435
                         22       1    1pz               0.130156       0.111435

                         23       1    1px               0.084593       0.065029
                         23       1    1py               0.084593       0.065029
                         23       1    1pz               0.084593       0.065029

                         24       1    1dx2             28.354200     573.442535
                         24       1    1dxy             28.354200     993.231605
                         24       1    1dxz             28.354200     993.231605
                         24       1    1dy2             28.354200     573.442535
                         24       1    1dyz             28.354200     993.231605
                         24       1    1dz2             28.354200     573.442535

                         25       1    1dx2              8.248800      66.083542
                         25       1    1dxy              8.248800     114.460052
                         25       1    1dxz              8.248800     114.460052
                         25       1    1dy2              8.248800      66.083542
                         25       1    1dyz              8.248800     114.460052
                         25       1    1dz2              8.248800      66.083542

                         26       1    1dx2              2.956150      10.969347
                         26       1    1dxy              2.956150      18.999466
                         26       1    1dxz              2.956150      18.999466
                         26       1    1dy2              2.956150      10.969347
                         26       1    1dyz              2.956150      18.999466
                         26       1    1dz2              2.956150      10.969347

                         27       1    1dx2              1.287300       2.560643
                         27       1    1dxy              1.287300       4.435164
                         27       1    1dxz              1.287300       4.435164
                         27       1    1dy2              1.287300       2.560643
                         27       1    1dyz              1.287300       4.435164
                         27       1    1dz2              1.287300       2.560643

                         28       1    1dx2              0.583460       0.641105
                         28       1    1dxy              0.583460       1.110426
                         28       1    1dxz              0.583460       1.110426
                         28       1    1dy2              0.583460       0.641105
                         28       1    1dyz              0.583460       1.110426
                         28       1    1dz2              0.583460       0.641105

                         29       1    1dx2              0.344419       0.254866
                         29       1    1dxy              0.344419       0.441441
                         29       1    1dxz              0.344419       0.441441
                         29       1    1dy2              0.344419       0.254866
                         29       1    1dyz              0.344419       0.441441
                         29       1    1dz2              0.344419       0.254866

                         30       1    1dx2              0.222430       0.118576
                         30       1    1dxy              0.222430       0.205380
                         30       1    1dxz              0.222430       0.205380
                         30       1    1dy2              0.222430       0.118576
                         30       1    1dyz              0.222430       0.205380
                         30       1    1dz2              0.222430       0.118576

                         31       1    1dx2              0.151929       0.060853
                         31       1    1dxy              0.151929       0.105400
                         31       1    1dxz              0.151929       0.105400
                         31       1    1dy2              0.151929       0.060853
                         31       1    1dyz              0.151929       0.105400
                         31       1    1dz2              0.151929       0.060853

                         32       1    1dx2              0.091250       0.024935
                         32       1    1dxy              0.091250       0.043189
                         32       1    1dxz              0.091250       0.043189
                         32       1    1dy2              0.091250       0.024935
                         32       1    1dyz              0.091250       0.043189
                         32       1    1dz2              0.091250       0.024935

                         33       1    1fx3              6.950670     115.482043
                         33       1    1fx2y             6.950670     258.225697
                         33       1    1fx2z             6.950670     258.225697
                         33       1    1fxy2             6.950670     258.225697
                         33       1    1fxyz             6.950670     447.260028
                         33       1    1fxz2             6.950670     258.225697
                         33       1    1fy3              6.950670     115.482043
                         33       1    1fy2z             6.950670     258.225697
                         33       1    1fyz2             6.950670     258.225697
                         33       1    1fz3              6.950670     115.482043

                         34       1    1fx3              2.762140      14.479623
                         34       1    1fx2y             2.762140      32.377421
                         34       1    1fx2z             2.762140      32.377421
                         34       1    1fxy2             2.762140      32.377421
                         34       1    1fxyz             2.762140      56.079338
                         34       1    1fxz2             2.762140      32.377421
                         34       1    1fy3              2.762140      14.479623
                         34       1    1fy2z             2.762140      32.377421
                         34       1    1fyz2             2.762140      32.377421
                         34       1    1fz3              2.762140      14.479623

                         35       1    1fx3              1.250720       2.435368
                         35       1    1fx2y             1.250720       5.445649
                         35       1    1fx2z             1.250720       5.445649
                         35       1    1fxy2             1.250720       5.445649
                         35       1    1fxyz             1.250720       9.432141
                         35       1    1fxz2             1.250720       5.445649
                         35       1    1fy3              1.250720       2.435368
                         35       1    1fy2z             1.250720       5.445649
                         35       1    1fyz2             1.250720       5.445649
                         35       1    1fz3              1.250720       2.435368

                         36       1    1fx3              0.575997       0.425500
                         36       1    1fx2y             0.575997       0.951448
                         36       1    1fx2z             0.575997       0.951448
                         36       1    1fxy2             0.575997       0.951448
                         36       1    1fxyz             0.575997       1.647956
                         36       1    1fxz2             0.575997       0.951448
                         36       1    1fy3              0.575997       0.425500
                         36       1    1fy2z             0.575997       0.951448
                         36       1    1fyz2             0.575997       0.951448
                         36       1    1fz3              0.575997       0.425500

                         37       1    1fx3              0.334257       0.125065
                         37       1    1fx2y             0.334257       0.279654
                         37       1    1fx2z             0.334257       0.279654
                         37       1    1fxy2             0.334257       0.279654
                         37       1    1fxyz             0.334257       0.484374
                         37       1    1fxz2             0.334257       0.279654
                         37       1    1fy3              0.334257       0.125065
                         37       1    1fy2z             0.334257       0.279654
                         37       1    1fyz2             0.334257       0.279654
                         37       1    1fz3              0.334257       0.125065

                         38       1    1fx3              0.216355       0.046998
                         38       1    1fx2y             0.216355       0.105091
                         38       1    1fx2z             0.216355       0.105091
                         38       1    1fxy2             0.216355       0.105091
                         38       1    1fxyz             0.216355       0.182023
                         38       1    1fxz2             0.216355       0.105091
                         38       1    1fy3              0.216355       0.046998
                         38       1    1fy2z             0.216355       0.105091
                         38       1    1fyz2             0.216355       0.105091
                         38       1    1fz3              0.216355       0.046998

                         39       1    1fx3              0.126090       0.013947
                         39       1    1fx2y             0.126090       0.031187
                         39       1    1fx2z             0.126090       0.031187
                         39       1    1fxy2             0.126090       0.031187
                         39       1    1fxyz             0.126090       0.054017
                         39       1    1fxz2             0.126090       0.031187
                         39       1    1fy3              0.126090       0.013947
                         39       1    1fy2z             0.126090       0.031187
                         39       1    1fyz2             0.126090       0.031187
                         39       1    1fz3              0.126090       0.013947

                         40       1    1gx4              2.550100      14.603863
                         40       1    1gx3y             2.550100      38.638190
                         40       1    1gx3z             2.550100      38.638190
                         40       1    1gx2y2            2.550100      49.881689
                         40       1    1gx2yz            2.550100      86.397620
                         40       1    1gx2z2            2.550100      49.881689
                         40       1    1gxy3             2.550100      38.638190
                         40       1    1gxy2z            2.550100      86.397620
                         40       1    1gxyz2            2.550100      86.397620
                         40       1    1gxz3             2.550100      38.638190
                         40       1    1gy4              2.550100      14.603863
                         40       1    1gy3z             2.550100      38.638190
                         40       1    1gy2z2            2.550100      49.881689
                         40       1    1gyz3             2.550100      38.638190
                         40       1    1gz4              2.550100      14.603863

                         41       1    1gx4              1.072600       1.349396
                         41       1    1gx3y             1.072600       3.570166
                         41       1    1gx3z             1.072600       3.570166
                         41       1    1gx2y2            1.072600       4.609064
                         41       1    1gx2yz            1.072600       7.983133
                         41       1    1gx2z2            1.072600       4.609064
                         41       1    1gxy3             1.072600       3.570166
                         41       1    1gxy2z            1.072600       7.983133
                         41       1    1gxyz2            1.072600       7.983133
                         41       1    1gxz3             1.072600       3.570166
                         41       1    1gy4              1.072600       1.349396
                         41       1    1gy3z             1.072600       3.570166
                         41       1    1gy2z2            1.072600       4.609064
                         41       1    1gyz3             1.072600       3.570166
                         41       1    1gz4              1.072600       1.349396

                         42       1    1gx4              0.552581       0.217783
                         42       1    1gx3y             0.552581       0.576200
                         42       1    1gx3z             0.552581       0.576200
                         42       1    1gx2y2            0.552581       0.743871
                         42       1    1gx2yz            0.552581       1.288423
                         42       1    1gx2z2            0.552581       0.743871
                         42       1    1gxy3             0.552581       0.576200
                         42       1    1gxy2z            0.552581       1.288423
                         42       1    1gxyz2            0.552581       1.288423
                         42       1    1gxz3             0.552581       0.576200
                         42       1    1gy4              0.552581       0.217783
                         42       1    1gy3z             0.552581       0.576200
                         42       1    1gy2z2            0.552581       0.743871
                         42       1    1gyz3             0.552581       0.576200
                         42       1    1gz4              0.552581       0.217783

                         43       1    1gx4              0.308050       0.043666
                         43       1    1gx3y             0.308050       0.115529
                         43       1    1gx3z             0.308050       0.115529
                         43       1    1gx2y2            0.308050       0.149148
                         43       1    1gx2yz            0.308050       0.258332
                         43       1    1gx2z2            0.308050       0.149148
                         43       1    1gxy3             0.308050       0.115529
                         43       1    1gxy2z            0.308050       0.258332
                         43       1    1gxyz2            0.308050       0.258332
                         43       1    1gxz3             0.308050       0.115529
                         43       1    1gy4              0.308050       0.043666
                         43       1    1gy3z             0.308050       0.115529
                         43       1    1gy2z2            0.308050       0.149148
                         43       1    1gyz3             0.308050       0.115529
                         43       1    1gz4              0.308050       0.043666

                         44       1    1gx4              0.146581       0.005664
                         44       1    1gx3y             0.146581       0.014986
                         44       1    1gx3z             0.146581       0.014986
                         44       1    1gx2y2            0.146581       0.019347
                         44       1    1gx2yz            0.146581       0.033511
                         44       1    1gx2z2            0.146581       0.019347
                         44       1    1gxy3             0.146581       0.014986
                         44       1    1gxy2z            0.146581       0.033511
                         44       1    1gxyz2            0.146581       0.033511
                         44       1    1gxz3             0.146581       0.014986
                         44       1    1gy4              0.146581       0.005664
                         44       1    1gy3z             0.146581       0.014986
                         44       1    1gy2z2            0.146581       0.019347
                         44       1    1gyz3             0.146581       0.014986
                         44       1    1gz4              0.146581       0.005664

                         45       1    1hx5              1.512580       2.847271
                         45       1    1hx4y             1.512580       8.541813
                         45       1    1hx4z             1.512580       8.541813
                         45       1    1hx3y2            1.512580      13.047835
                         45       1    1hx3yz            1.512580      22.599514
                         45       1    1hx3z2            1.512580      13.047835
                         45       1    1hx2y3            1.512580      13.047835
                         45       1    1hx2y2z           1.512580      29.175846
                         45       1    1hx2yz2           1.512580      29.175846
                         45       1    1hx2z3            1.512580      13.047835
                         45       1    1hxy4             1.512580       8.541813
                         45       1    1hxy3z            1.512580      22.599514
                         45       1    1hxy2z2           1.512580      29.175846
                         45       1    1hxyz3            1.512580      22.599514
                         45       1    1hxz4             1.512580       8.541813
                         45       1    1hy5              1.512580       2.847271
                         45       1    1hy4z             1.512580       8.541813
                         45       1    1hy3z2            1.512580      13.047835
                         45       1    1hy2z3            1.512580      13.047835
                         45       1    1hyz4             1.512580       8.541813
                         45       1    1hz5              1.512580       2.847271

                         46       1    1hx5              0.457920       0.058602
                         46       1    1hx4y             0.457920       0.175805
                         46       1    1hx4z             0.457920       0.175805
                         46       1    1hx3y2            0.457920       0.268547
                         46       1    1hx3yz            0.457920       0.465137
                         46       1    1hx3z2            0.457920       0.268547
                         46       1    1hx2y3            0.457920       0.268547
                         46       1    1hx2y2z           0.457920       0.600489
                         46       1    1hx2yz2           0.457920       0.600489
                         46       1    1hx2z3            0.457920       0.268547
                         46       1    1hxy4             0.457920       0.175805
                         46       1    1hxy3z            0.457920       0.465137
                         46       1    1hxy2z2           0.457920       0.600489
                         46       1    1hxyz3            0.457920       0.465137
                         46       1    1hxz4             0.457920       0.175805
                         46       1    1hy5              0.457920       0.058602
                         46       1    1hy4z             0.457920       0.175805
                         46       1    1hy3z2            0.457920       0.268547
                         46       1    1hy2z3            0.457920       0.268547
                         46       1    1hyz4             0.457920       0.175805
                         46       1    1hz5              0.457920       0.058602

                         47       1    1hx5              0.292537       0.013659
                         47       1    1hx4y             0.292537       0.040978
                         47       1    1hx4z             0.292537       0.040978
                         47       1    1hx3y2            0.292537       0.062595
                         47       1    1hx3yz            0.292537       0.108418
                         47       1    1hx3z2            0.292537       0.062595
                         47       1    1hx2y3            0.292537       0.062595
                         47       1    1hx2y2z           0.292537       0.139967
                         47       1    1hx2yz2           0.292537       0.139967
                         47       1    1hx2z3            0.292537       0.062595
                         47       1    1hxy4             0.292537       0.040978
                         47       1    1hxy3z            0.292537       0.108418
                         47       1    1hxy2z2           0.292537       0.139967
                         47       1    1hxyz3            0.292537       0.108418
                         47       1    1hxz4             0.292537       0.040978
                         47       1    1hy5              0.292537       0.013659
                         47       1    1hy4z             0.292537       0.040978
                         47       1    1hy3z2            0.292537       0.062595
                         47       1    1hy2z3            0.292537       0.062595
                         47       1    1hyz4             0.292537       0.040978
                         47       1    1hz5              0.292537       0.013659

                         48       1    1ix6              1.074570       0.585879
                         48       1    1ix5y             1.074570       1.943141
                         48       1    1ix5z             1.074570       1.943141
                         48       1    1ix4y2            1.074570       3.365619
                         48       1    1ix4yz            1.074570       5.829423
                         48       1    1ix4z2            1.074570       3.365619
                         48       1    1ix3y3            1.074570       3.982254
                         48       1    1ix3y2z           1.074570       8.904591
                         48       1    1ix3yz2           1.074570       8.904591
                         48       1    1ix3z3            1.074570       3.982254
                         48       1    1ix2y4            1.074570       3.365619
                         48       1    1ix2y3z           1.074570       8.904591
                         48       1    1ix2y2z2          1.074570      11.495778
                         48       1    1ix2yz3           1.074570       8.904591
                         48       1    1ix2z4            1.074570       3.365619
                         48       1    1ixy5             1.074570       1.943141
                         48       1    1ixy4z            1.074570       5.829423
                         48       1    1ixy3z2           1.074570       8.904591
                         48       1    1ixy2z3           1.074570       8.904591
                         48       1    1ixyz4            1.074570       5.829423
                         48       1    1ixz5             1.074570       1.943141
                         48       1    1iy6              1.074570       0.585879
                         48       1    1iy5z             1.074570       1.943141
                         48       1    1iy4z2            1.074570       3.365619
                         48       1    1iy3z3            1.074570       3.982254
                         48       1    1iy2z4            1.074570       3.365619
                         48       1    1iyz5             1.074570       1.943141
                         48       1    1iz6              1.074570       0.585879

       Atomic covalent radius [Angstrom]:                                  1.360

       Atomic van der Waals radius [Angstrom]:                             1.730

     The atoms of this atomic kind are PAW atoms (GAPW):
       Hard Gaussian function radius:                                      1.512
       Rho0 radius:                                                        1.512
       Maximum GTO radius used for PAW projector construction:            24.566

     GAPW Soft Basis Set                                          def2-QZVP_soft

       Number of orbital shell sets:                                          19
       Number of orbital shells:                                              19
       Number of primitive Cartesian functions:                               17
       Number of Cartesian basis functions:                                   58
       Number of spherical basis functions:                                   51
       Norm type:                                                              2

       Normalised Cartesian orbitals:

                        Set   Shell   Orbital            Exponent    Coefficient

                          1       1    1s         

                          2       1    1s         

                          3       1    1s         

                          4       1    1s                3.540299       1.839459

                          5       1    1s                1.545085       0.987698

                          6       1    1s                0.665402       0.525077

                          7       1    1s                0.143554       0.166216

                          8       1    1s                0.066625       0.093462

                          9       1    1s                0.029773       0.051083

                         10       1    1px               2.010047       1.312849
                                                         0.873848       0.343401
                         10       1    1py               2.010047       1.312849
                                                         0.873848       0.343401
                         10       1    1pz               2.010047       1.312849
                                                         0.873848       0.343401

                         11       1    1px               0.356151       0.392177
                         11       1    1py               0.356151       0.392177
                         11       1    1pz               0.356151       0.392177

                         12       1    1px               0.189960       0.178758
                         12       1    1py               0.189960       0.178758
                         12       1    1pz               0.189960       0.178758

                         13       1    1px               0.074580       0.055554
                         13       1    1py               0.074580       0.055554
                         13       1    1pz               0.074580       0.055554

                         14       1    1px               0.029222       0.017221
                         14       1    1py               0.029222       0.017221
                         14       1    1pz               0.029222       0.017221

                         15       1    1dx2              3.810000      17.101262
                         15       1    1dxy              3.810000      29.620255
                         15       1    1dxz              3.810000      29.620255
                         15       1    1dy2              3.810000      17.101262
                         15       1    1dyz              3.810000      29.620255
                         15       1    1dz2              3.810000      17.101262

                         16       1    1dx2              0.650000       0.774476
                         16       1    1dxy              0.650000       1.341431
                         16       1    1dxz              0.650000       1.341431
                         16       1    1dy2              0.650000       0.774476
                         16       1    1dyz              0.650000       1.341431
                         16       1    1dz2              0.650000       0.774476

                         17       1    1dx2              0.200000       0.098449
                         17       1    1dxy              0.200000       0.170519
                         17       1    1dxz              0.200000       0.170519
                         17       1    1dy2              0.200000       0.098449
                         17       1    1dyz              0.200000       0.170519
                         17       1    1dz2              0.200000       0.098449

                         18       1    1dx2              0.052000       0.009320
                         18       1    1dxy              0.052000       0.016143
                         18       1    1dxz              0.052000       0.016143
                         18       1    1dy2              0.052000       0.009320
                         18       1    1dyz              0.052000       0.016143
                         18       1    1dz2              0.052000       0.009320

                         19       1    1fx3              0.160000       0.023836
                         19       1    1fx2y             0.160000       0.053298
                         19       1    1fx2z             0.160000       0.053298
                         19       1    1fxy2             0.160000       0.053298
                         19       1    1fxyz             0.160000       0.092315
                         19       1    1fxz2             0.160000       0.053298
                         19       1    1fy3              0.160000       0.023836
                         19       1    1fy2z             0.160000       0.053298
                         19       1    1fyz2             0.160000       0.053298
                         19       1    1fz3              0.160000       0.023836

     AE Potential information for                                            ALL

       Description:                                       All-electron potential
                                          Krack, Parrinello, PCCP 2, 2105 (2000)

       Gaussian exponent of the core charge distribution:              11.236029
       Electronic configuration (s p d ...):                           6   6   0

  2. Atomic kind: O                                     Number of atoms:       1

     Orbital Basis Set                                                 def2-QZVP

       Number of orbital shell sets:                                          17
       Number of orbital shells:                                              17
       Number of primitive Cartesian functions:                               29
       Number of Cartesian basis functions:                                   72
       Number of spherical basis functions:                                   57
       Norm type:                                                              2

       Normalised Cartesian orbitals:

                        Set   Shell   Orbital            Exponent    Coefficient

                          1       1    1s           116506.469080       0.323542
                                                     17504.349724       0.604284
                                                      3993.451323       1.042947
                                                      1133.006319       1.694135
                                                       369.995696       2.585616
                                                       133.620743       3.631450
                                                        52.035644       4.414414
                                                        21.461939       4.188022

                          2       1    1s               89.835051       1.972527
                                                        26.428011       7.687249

                          3       1    1s                9.282282       3.790104

                          4       1    1s                4.094773       2.051552

                          5       1    1s                1.325535       0.880448

                          6       1    1s                0.518772       0.435655

                          7       1    1s                0.197727       0.211329

                          8       1    1px             191.152558       2.569255
                                                        45.233357       3.383308
                                                        14.353466       3.764009
                                                         5.242237       3.495516
                                                         2.079242       2.436773
                          8       1    1py             191.152558       2.569255
                                                        45.233357       3.383308
                                                        14.353466       3.764009
                                                         5.242237       3.495516
                                                         2.079242       2.436773
                          8       1    1pz             191.152558       2.569255
                                                        45.233357       3.383308
                                                        14.353466       3.764009
                                                         5.242237       3.495516
                                                         2.079242       2.436773

                          9       1    1px               0.842824       1.151095
                          9       1    1py               0.842824       1.151095
                          9       1    1pz               0.842824       1.151095

                         10       1    1px               0.336177       0.364880
                         10       1    1py               0.336177       0.364880
                         10       1    1pz               0.336177       0.364880

                         11       1    1px               0.128640       0.109815
                         11       1    1py               0.128640       0.109815
                         11       1    1pz               0.128640       0.109815

                         12       1    1dx2              3.775000      16.827288
                         12       1    1dxy              3.775000      29.145718
                         12       1    1dxz              3.775000      29.145718
                         12       1    1dy2              3.775000      16.827288
                         12       1    1dyz              3.775000      29.145718
                         12       1    1dz2              3.775000      16.827288

                         13       1    1dx2              1.300000       2.605016
                         13       1    1dxy              1.300000       4.512019
                         13       1    1dxz              1.300000       4.512019
                         13       1    1dy2              1.300000       2.605016
                         13       1    1dyz              1.300000       4.512019
                         13       1    1dz2              1.300000       2.605016

                         14       1    1dx2              0.444000       0.397493
                         14       1    1dxy              0.444000       0.688478
                         14       1    1dxz              0.444000       0.688478
                         14       1    1dy2              0.444000       0.397493
                         14       1    1dyz              0.444000       0.688478
                         14       1    1dz2              0.444000       0.397493

                         15       1    1fx3              2.666000      13.370258
                         15       1    1fx2y             2.666000      29.896805
                         15       1    1fx2z             2.666000      29.896805
                         15       1    1fxy2             2.666000      29.896805
                         15       1    1fxyz             2.666000      51.782785
                         15       1    1fxz2             2.666000      29.896805
                         15       1    1fy3              2.666000      13.370258
                         15       1    1fy2z             2.666000      29.896805
                         15       1    1fyz2             2.666000      29.896805
                         15       1    1fz3              2.666000      13.370258

                         16       1    1fx3              0.859000       1.045777
                         16       1    1fx2y             0.859000       2.338428
                         16       1    1fx2z             0.859000       2.338428
                         16       1    1fxy2             0.859000       2.338428
                         16       1    1fxyz             0.859000       4.050277
                         16       1    1fxz2             0.859000       2.338428
                         16       1    1fy3              0.859000       1.045777
                         16       1    1fy2z             0.859000       2.338428
                         16       1    1fyz2             0.859000       2.338428
                         16       1    1fz3              0.859000       1.045777

                         17       1    1gx4              1.846000       6.005824
                         17       1    1gx3y             1.846000      15.889916
                         17       1    1gx3z             1.846000      15.889916
                         17       1    1gx2y2            1.846000      20.513794
                         17       1    1gx2yz            1.846000      35.530933
                         17       1    1gx2z2            1.846000      20.513794
                         17       1    1gxy3             1.846000      15.889916
                         17       1    1gxy2z            1.846000      35.530933
                         17       1    1gxyz2            1.846000      35.530933
                         17       1    1gxz3             1.846000      15.889916
                         17       1    1gy4              1.846000       6.005824
                         17       1    1gy3z             1.846000      15.889916
                         17       1    1gy2z2            1.846000      20.513794
                         17       1    1gyz3             1.846000      15.889916
                         17       1    1gz4              1.846000       6.005824

     RI Auxiliary Basis Set                                                RI-5Z

       Number of orbital shell sets:                                          38
       Number of orbital shells:                                              38
       Number of primitive Cartesian functions:                               38
       Number of Cartesian basis functions:                                  259
       Number of spherical basis functions:                                  180
       Norm type:                                                              2

       Normalised Cartesian orbitals:

                        Set   Shell   Orbital            Exponent    Coefficient

                          1       1    1s              488.561000      74.062640

                          2       1    1s              105.279000      23.424288

                          3       1    1s               28.708200       8.839233

                          4       1    1s               14.825500       5.384769

                          5       1    1s                5.831540       2.674530

                          6       1    1s                3.595370       1.860878

                          7       1    1s                1.940030       1.171565

                          8       1    1s                1.058590       0.743800

                          9       1    1s                0.474911       0.407727

                         10       1    1s                0.251005       0.252739

                         11       1    1px              94.256600     418.629472
                         11       1    1py              94.256600     418.629472
                         11       1    1pz              94.256600     418.629472

                         12       1    1px              25.465100      81.540209
                         12       1    1py              25.465100      81.540209
                         12       1    1pz              25.465100      81.540209

                         13       1    1px              11.049300      28.714982
                         13       1    1py              11.049300      28.714982
                         13       1    1pz              11.049300      28.714982

                         14       1    1px               4.708760       9.887199
                         14       1    1py               4.708760       9.887199
                         14       1    1pz               4.708760       9.887199

                         15       1    1px               2.756880       5.063635
                         15       1    1py               2.756880       5.063635
                         15       1    1pz               2.756880       5.063635

                         16       1    1px               1.274280       1.929839
                         16       1    1py               1.274280       1.929839
                         16       1    1pz               1.274280       1.929839

                         17       1    1px               0.696641       0.907197
                         17       1    1py               0.696641       0.907197
                         17       1    1pz               0.696641       0.907197

                         18       1    1px               0.416519       0.476962
                         18       1    1py               0.416519       0.476962
                         18       1    1pz               0.416519       0.476962

                         19       1    1dx2             21.988200     367.486504
                         19       1    1dxy             21.988200     636.505295
                         19       1    1dxz             21.988200     636.505295
                         19       1    1dy2             21.988200     367.486504
                         19       1    1dyz             21.988200     636.505295
                         19       1    1dz2             21.988200     367.486504

                         20       1    1dx2              7.274420      53.034271
                         20       1    1dxy              7.274420      91.858053
                         20       1    1dxz              7.274420      91.858053
                         20       1    1dy2              7.274420      53.034271
                         20       1    1dyz              7.274420      91.858053
                         20       1    1dz2              7.274420      53.034271

                         21       1    1dx2              4.518780      23.051360
                         21       1    1dxy              4.518780      39.926127
                         21       1    1dxz              4.518780      39.926127
                         21       1    1dy2              4.518780      23.051360
                         21       1    1dyz              4.518780      39.926127
                         21       1    1dz2              4.518780      23.051360

                         22       1    1dx2              2.719410       9.478512
                         22       1    1dxy              2.719410      16.417264
                         22       1    1dxz              2.719410      16.417264
                         22       1    1dy2              2.719410       9.478512
                         22       1    1dyz              2.719410      16.417264
                         22       1    1dz2              2.719410       9.478512

                         23       1    1dx2              1.442130       3.123685
                         23       1    1dxy              1.442130       5.410380
                         23       1    1dxz              1.442130       5.410380
                         23       1    1dy2              1.442130       3.123685
                         23       1    1dyz              1.442130       5.410380
                         23       1    1dz2              1.442130       3.123685

                         24       1    1dx2              0.719024       0.924082
                         24       1    1dxy              0.719024       1.600557
                         24       1    1dxz              0.719024       1.600557
                         24       1    1dy2              0.719024       0.924082
                         24       1    1dyz              0.719024       1.600557
                         24       1    1dz2              0.719024       0.924082

                         25       1    1dx2              0.303063       0.203747
                         25       1    1dxy              0.303063       0.352901
                         25       1    1dxz              0.303063       0.352901
                         25       1    1dy2              0.303063       0.203747
                         25       1    1dyz              0.303063       0.352901
                         25       1    1dz2              0.303063       0.203747

                         26       1    1fx3             14.098700     567.031722
                         26       1    1fx2y            14.098700    1267.921477
                         26       1    1fx2z            14.098700    1267.921477
                         26       1    1fxy2            14.098700    1267.921477
                         26       1    1fxyz            14.098700    2196.104418
                         26       1    1fxz2            14.098700    1267.921477
                         26       1    1fy3             14.098700     567.031722
                         26       1    1fy2z            14.098700    1267.921477
                         26       1    1fyz2            14.098700    1267.921477
                         26       1    1fz3             14.098700     567.031722

                         27       1    1fx3              6.442910      97.361912
                         27       1    1fx2y             6.442910     217.707854
                         27       1    1fx2z             6.442910     217.707854
                         27       1    1fxy2             6.442910     217.707854
                         27       1    1fxyz             6.442910     377.081065
                         27       1    1fxz2             6.442910     217.707854
                         27       1    1fy3              6.442910      97.361912
                         27       1    1fy2z             6.442910     217.707854
                         27       1    1fyz2             6.442910     217.707854
                         27       1    1fz3              6.442910      97.361912

                         28       1    1fx3              3.721040      28.310609
                         28       1    1fx2y             3.721040      63.304446
                         28       1    1fx2z             3.721040      63.304446
                         28       1    1fxy2             3.721040      63.304446
                         28       1    1fxyz             3.721040     109.646517
                         28       1    1fxz2             3.721040      63.304446
                         28       1    1fy3              3.721040      28.310609
                         28       1    1fy2z             3.721040      63.304446
                         28       1    1fyz2             3.721040      63.304446
                         28       1    1fz3              3.721040      28.310609

                         29       1    1fx3              2.093740       7.763019
                         29       1    1fx2y             2.093740      17.358638
                         29       1    1fx2z             2.093740      17.358638
                         29       1    1fxy2             2.093740      17.358638
                         29       1    1fxyz             2.093740      30.066042
                         29       1    1fxz2             2.093740      17.358638
                         29       1    1fy3              2.093740       7.763019
                         29       1    1fy2z             2.093740      17.358638
                         29       1    1fyz2             2.093740      17.358638
                         29       1    1fz3              2.093740       7.763019

                         30       1    1fx3              1.185310       2.158124
                         30       1    1fx2y             1.185310       4.825711
                         30       1    1fx2z             1.185310       4.825711
                         30       1    1fxy2             1.185310       4.825711
                         30       1    1fxyz             1.185310       8.358377
                         30       1    1fxz2             1.185310       4.825711
                         30       1    1fy3              1.185310       2.158124
                         30       1    1fy2z             1.185310       4.825711
                         30       1    1fyz2             1.185310       4.825711
                         30       1    1fz3              1.185310       2.158124

                         31       1    1fx3              0.621013       0.504001
                         31       1    1fx2y             0.621013       1.126979
                         31       1    1fx2z             0.621013       1.126979
                         31       1    1fxy2             0.621013       1.126979
                         31       1    1fxyz             0.621013       1.951986
                         31       1    1fxz2             0.621013       1.126979
                         31       1    1fy3              0.621013       0.504001
                         31       1    1fy2z             0.621013       1.126979
                         31       1    1fyz2             0.621013       1.126979
                         31       1    1fz3              0.621013       0.504001

                         32       1    1gx4              7.014070     235.968042
                         32       1    1gx3y             7.014070     624.312756
                         32       1    1gx3z             7.014070     624.312756
                         32       1    1gx2y2            7.014070     805.984303
                         32       1    1gx2yz            7.014070    1396.005762
                         32       1    1gx2z2            7.014070     805.984303
                         32       1    1gxy3             7.014070     624.312756
                         32       1    1gxy2z            7.014070    1396.005762
                         32       1    1gxyz2            7.014070    1396.005762
                         32       1    1gxz3             7.014070     624.312756
                         32       1    1gy4              7.014070     235.968042
                         32       1    1gy3z             7.014070     624.312756
                         32       1    1gy2z2            7.014070     805.984303
                         32       1    1gyz3             7.014070     624.312756
                         32       1    1gz4              7.014070     235.968042

                         33       1    1gx4              3.883140      46.418255
                         33       1    1gx3y             3.883140     122.811159
                         33       1    1gx3z             3.883140     122.811159
                         33       1    1gx2y2            3.883140     158.548524
[...]
 flops   180 x   180 x   230            447120000       0.0%    100.0%      0.0%
 flops   180 x   230 x   180            447120000       0.0%    100.0%      0.0%
 flops   230 x   180 x   230            571320000       0.0%    100.0%      0.0%
 flops   230 x   230 x   180            571320000       0.0%    100.0%      0.0%
 flops   180 x   230 x   230            571320000       0.0%    100.0%      0.0%
 flops   230 x   230 x   230            730020000       0.0%    100.0%      0.0%
 flops inhomo. stacks                           0       0.0%      0.0%      0.0%
 flops total                         4.139553E+09       0.0%    100.0%      0.0%
 flops max/rank                      4.139553E+09       0.0%    100.0%      0.0%
 matmuls inhomo. stacks                         0       0.0%      0.0%      0.0%
 matmuls total                                256       0.0%    100.0%      0.0%
 number of processed stacks                   256       0.0%    100.0%      0.0%
 average stack size                                     0.0       1.0       0.0
 marketing flops                     4.136892E+09
 -------------------------------------------------------------------------------
 # multiplications                             35
 max memory usage/rank               8.922477E+09
 # max total images/rank                        1
 # max 3D layers                                1
 # MPI messages exchanged                       0
 -------------------------------------------------------------------------------
 -                                                                             -
 -                      DBCSR MESSAGE PASSING PERFORMANCE                      -
 -                                                                             -
 -------------------------------------------------------------------------------
 ROUTINE             CALLS      AVE VOLUME [Bytes]
 MP_Bcast               22                     12.
 MP_Allreduce          207                     13.
 MP_Alltoall          6014                 306556.
 MP_ISend              140                     77.
 MP_IRecv              140                     77.
 -------------------------------------------------------------------------------

 -------------------------------------------------------------------------------
 -                                                                             -
 -                                DBM STATISTICS                               -
 -                                                                             -
 -------------------------------------------------------------------------------
    M  x    N  x    K                                          COUNT     PERCENT
    ?  x    ?  x   ??                                       25116109      27.69%
    ?  x  ???  x    ?                                       20125773      22.19%
   ??  x    ?  x    ?                                       17937254      19.78%
    ?  x    ?  x    ?                                       17110194      18.87%
   ??  x    ?  x   ??                                        3292889       3.63%
    ?  x   ??  x   ??                                        3287451       3.62%
    ?  x  ???  x   ??                                        1572480       1.73%
   ??  x  ???  x    ?                                        1572480       1.73%
   ??  x   ??  x   ??                                         424434       0.47%
   ??  x  ???  x   ??                                         211680       0.23%
  ???  x    ?  x    ?                                          39162       0.04%
 -------------------------------------------------------------------------------

 -------------------------------------------------------------------------------
 -                                                                             -
 -                                GRID STATISTICS                              -
 -                                                                             -
 -------------------------------------------------------------------------------
 LP    KERNEL             BACKEND                              COUNT     PERCENT
 2     collocate ortho    CPU                                    344      12.61%
 2     integrate ortho    CPU                                    344      12.61%
 3     collocate ortho    CPU                                    290      10.63%
 3     integrate ortho    CPU                                    290      10.63%
 1     collocate ortho    CPU                                    276      10.12%
 1     integrate ortho    CPU                                    276      10.12%
 4     collocate ortho    CPU                                    186       6.82%
 4     integrate ortho    CPU                                    186       6.82%
 0     collocate ortho    CPU                                    126       4.62%
 0     integrate ortho    CPU                                    126       4.62%
 5     collocate ortho    CPU                                     90       3.30%
 5     integrate ortho    CPU                                     90       3.30%
 6     collocate ortho    CPU                                     34       1.25%
 6     integrate ortho    CPU                                     34       1.25%
 7     collocate ortho    CPU                                     10       0.37%
 7     integrate ortho    CPU                                     10       0.37%
 2     collocate general  CPU                                      4       0.15%
 2     integrate general  CPU                                      4       0.15%
 8     collocate ortho    CPU                                      2       0.07%
 8     integrate ortho    CPU                                      2       0.07%
 0     collocate general  CPU                                      2       0.07%
 0     integrate general  CPU                                      2       0.07%
 -------------------------------------------------------------------------------

 MEMORY| Estimated peak process memory [MiB]                                8551

 -------------------------------------------------------------------------------
 ----                             MULTIGRID INFO                            ----
 -------------------------------------------------------------------------------
 count for grid        1:          15457          cutoff [a.u.]          200.00
 count for grid        2:           1741          cutoff [a.u.]           66.67
 count for grid        3:            969          cutoff [a.u.]           22.22
 count for grid        4:            547          cutoff [a.u.]            7.41
 total gridlevel count  :          18714

 -------------------------------------------------------------------------------
 -                                                                             -
 -                         MESSAGE PASSING PERFORMANCE                         -
 -                                                                             -
 -------------------------------------------------------------------------------

 ROUTINE             CALLS      AVE VOLUME [Bytes]
 MP_Group             8732
 MP_Bcast             3284                   1632.
 MP_Allreduce         9117                    517.
 MP_Sync             14786
 MP_Alltoall          3082                     13.
 MP_Wait                10
 MP_comm_split        3240
 MP_ISend               14                 192120.
 MP_IRecv               14                 192120.
 -------------------------------------------------------------------------------


 -------------------------------------------------------------------------------
 -                                                                             -
 -                           R E F E R E N C E S                               -
 -                                                                             -
 -------------------------------------------------------------------------------
 
 CP2K version 2024.1 (Development Version), the CP2K developers group (2024).
 CP2K is freely available from https://www.cp2k.org/ .

 Kuehne,Thomas D.; Iannuzzi,Marcella; Del Ben,Mauro;
 Rybkin,Vladimir V.; Seewald,Patrick; Stein,Frederick; Laino,Teodoro;
 Khaliullin,Rustam Z.; Schuett,Ole; Schiffmann,Florian; Golze,Dorothea;
 Wilhelm,Jan; Chulkov,Sergey; Bani-Hashemian,Mohammad Hossein;
 Weber,Valery; Borstnik,Urban; Taillefumier,Mathieu;
 Jakobovits,Alice Shoshana; Lazzaro,Alfio; Pabst,Hans; Mueller,Tiziano;
 Schade,Robert; Guidon,Manuel; Andermatt,Samuel; Holmberg,Nico;
 Schenter,Gregory K.; Hehn,Anna; Bussy,Augustin; Belleflamme,Fabian;
 Tabacchi,Gloria; Gloess,Andreas; Lass,Michael; Bethune,Iain;
 Mundy,Christopher J.; Plessl,Christian; Watkins,Matt;
 VandeVondele,Joost; Krack,Matthias; Hutter,Juerg. 
 The Journal of Chemical Physics, 152 (19), (2020). 
 CP2K: An electronic structure and molecular dynamics software package -
 Quickstep: Efficient and accurate electronic structure calculations.
 https://doi.org/10.1063/5.0007045

 Wilhelm, J; Golze, D; Talirz, L; Hutter, J; Pignedoli, CA. 
 JOURNAL OF PHYSICAL CHEMISTRY LETTERS, 9, 306-312 (2018). 
 Toward GW calculations on thousands of atoms.
 https://doi.org/10.1021/acs.jpclett.7b02740

 Wilhelm, J; Hutter, J. PHYSICAL REVIEW B, 95, 235123 (2017). 
 Periodic GW calculations in the Gaussian and plane-waves scheme.
 https://doi.org/10.1103/PhysRevB.95.235123

 Wilhelm, J; Del Ben, M; Hutter, J. 
 JOURNAL OF CHEMICAL THEORY AND COMPUTATION, 12, 3623-3635 (2016). 
 GW in the Gaussian and plane waves scheme with application to linear acenes.
 https://doi.org/10.1021/acs.jctc.6b00380

 Wilhelm, J; Seewald, P; Del Ben, M; Hutter, J. 
 JOURNAL OF CHEMICAL THEORY AND COMPUTATION, 12, 5851-5859 (2016). 
 Large-Scale Cubic-Scaling Random Phase Approximation Correlation.
 https://doi.org/10.1021/acs.jctc.6b00840

 Schuett, Ole; Messmer, Peter; Hutter, Juerg; VandeVondele, Joost. 
 Electronic Structure Calculations on Graphics Processing Units, John
 Wiley & Sons, Ltd, 173-190 (2016). 
 GPU-Accelerated Sparse Matrix-Matrix Multiplication for
 Linear Scaling Density Functional Theory.
 https://doi.org/10.1002/9781118670712.ch8

 Heinecke, A; Henry, G; Hutchinson, M; Pabst, H. 
 Proceedings of Intl. Supercomputing Conference, 981-991 (2016). 
 LIBXSMM: Accelerating Small Matrix Multiplications
 by Runtime Code Generation.
 https://doi.org/10.1109/SC.2016.83

 Del Ben, M; Schuett, O; Wentz, T; Messmer, P; Hutter, J;
 VandeVondele, J. 
 COMPUTER PHYSICS COMMUNICATIONS, 187, 120-129 (2015). 
 Enabling simulation at the fifth rung of DFT: Large scale RPA
 calculations with excellent time to solution.
 https://doi.org/10.1016/j.cpc.2014.10.021

 Borstnik, U; VandeVondele, J; Weber, V; Hutter, J. 
 PARALLEL COMPUTING, 40 (5-6), 47-58 (2014). 
 Sparse matrix multiplication: The distributed block-compressed sparse
 row library.
 https://doi.org/10.1016/j.parco.2014.03.012

 Hutter, J; Iannuzzi, M; Schiffmann, F; VandeVondele, J. 
 WIREs Comput Mol Sci., 4 (1), 15-25 (2014). 
 CP2K: atomistic simulations of condensed matter systems.
 https://doi.org/10.1002/wcms.1159

 Marek, A; Blum, V; Johanni, R; Havu, V; Lang, B; Auckenthaler, T;
 Heinecke, A; Bungartz, H; Lederer, H. 
 Journal of Physics: Condensed Matter, 26 (21), (2014). 
 The ELPA library: scalable parallel eigenvalue solutions for
 electronic structure
 theory and computational science.
 https://doi.org/10.1088/0953-8984/26/21/213201

 Del Ben, M; Hutter, J; VandeVondele, J. 
 JOURNAL OF CHEMICAL THEORY AND COMPUTATION, 9 (6), 2654-2671 (2013). 
 Electron Correlation in the Condensed Phase from a Resolution of
 Identity Approach Based on the Gaussian and Plane Waves Scheme.
 https://doi.org/10.1021/ct4002202

 Del Ben, M; Hutter, J; VandeVondele, J. 
 JOURNAL OF CHEMICAL THEORY AND COMPUTATION, 8 (11), 4177-4188 (2012). 
 Second-Order Moller-Plesset Perturbation Theory in the Condensed Phase:
 An Efficient and Massively Parallel Gaussian and Plane Waves Approach.
 https://doi.org/10.1021/ct300531w

 Guidon, M; Hutter, J; VandeVondele, J. 
 JOURNAL OF CHEMICAL THEORY AND COMPUTATION, 5 (11), 3010-3021 (2009). 
 Robust Periodic Hartree-Fock Exchange for Large-Scale Simulations Using
 Gaussian Basis Sets.
 https://doi.org/10.1021/ct900494g

 Guidon, M; Schiffmann, F; Hutter, J; VandeVondele, J. 
 JOURNAL OF CHEMICAL PHYSICS, 128 (21), 214104 (2008). 
 Ab initio molecular dynamics using hybrid density functionals.
 https://doi.org/10.1063/1.2931945

 Frigo, M; Johnson, SG. 
 PROCEEDINGS OF THE IEEE, 93 (2), 216-231 (2005). 
 The design and implementation of FFTW3.
 https://doi.org/10.1109/JPROC.2004.840301

 Lippert, G; Hutter, J; Parrinello, M. 
 THEORETICAL CHEMISTRY ACCOUNTS, 103 (2), 124-140 (1999). 
 The Gaussian and augmented-plane-wave density functional method for ab
 initio molecular dynamics simulations.
 https://doi.org/10.1007/s002140050523

 Krack, M; Parrinello, M. 
 PHYSICAL CHEMISTRY CHEMICAL PHYSICS, 2 (10), 2105-2112 (2000). 
 All-electron ab-initio molecular dynamics.
 https://doi.org/10.1039/b001167n

 Martyna, GJ; Tuckerman, ME. 
 JOURNAL OF CHEMICAL PHYSICS, 110 (6), 2810-2821 (1999). 
 A reciprocal space based method for treating long range interactions in
 ab initio and force-field-based calculations in clusters.
 https://doi.org/10.1063/1.477923

 Perdew, JP; Burke, K; Ernzerhof, M. 
 PHYSICAL REVIEW LETTERS, 77 (18), 3865-3868 (1996). 
 Generalized gradient approximation made simple.
 https://doi.org/10.1103/PhysRevLett.77.3865


 -------------------------------------------------------------------------------
 -                                                                             -
 -                                T I M I N G                                  -
 -                                                                             -
 -------------------------------------------------------------------------------
 SUBROUTINE                       CALLS  ASD         SELF TIME        TOTAL TIME
                                MAXIMUM       AVERAGE  MAXIMUM  AVERAGE  MAXIMUM
 CP2K                                 1  1.0    0.256    0.256   60.284   60.284
 qs_energies                          1  2.0    0.009    0.009   43.896   43.896
 mp2_main                             1  3.0    0.019    0.019   29.026   29.026
 mp2_gpw_main                         1  4.0    0.001    0.001   22.393   22.393
 rpa_ri_compute_en                    1  5.0    0.000    0.000   21.306   21.306
 rpa_num_int                          1  6.0    0.019    0.019   21.306   21.306
 dbt_total                         4193  9.3    0.009    0.009   17.490   17.490
 qs_init_subsys                       1  2.0    0.168    0.168   15.750   15.750
 qs_env_setup                         1  3.0    0.010    0.010   15.548   15.548
 qs_env_rebuild_pw_env                2  3.5    0.000    0.000   15.535   15.535
 pw_env_rebuild                       1  5.0    0.051    0.051   15.535   15.535
 pw_grid_setup                        5  6.0    0.000    0.000   15.479   15.479
 pw_grid_setup_internal               5  7.0    0.240    0.240   15.479   15.479
 pw_grid_sort                         5  8.0   11.844   11.844   14.483   14.483
 dbt_contract                       811 11.0    0.021    0.021   14.259   14.259
 qs_ks_build_kohn_sham_matrix         2  6.0    0.009    0.009   14.120   14.120
 scf_env_do_scf                       1  3.0    0.015    0.015   13.818   13.818
 scf_env_do_scf_inner_loop            1  4.0    0.000    0.000   13.751   13.751
 dbt_tas_total                     1831 12.1    0.057    0.057   13.169   13.169
 dbt_tas_multiply                  1021 12.7    0.001    0.001   13.037   13.037
 qs_ks_update_qs_env                  1  5.0    0.000    0.000   12.789   12.789
 rebuild_ks_matrix                    1  6.0    0.000    0.000   12.789   12.789
 compute_QP_energies                  1  7.0    0.502    0.502   12.133   12.133
 integrate_four_center                3  7.0    0.121    0.121   11.379   11.379
 compute_self_energy_cubic_gw         8  8.0    0.046    0.046   10.939   10.939
 dbt_tas_dbm                       1021 14.7    0.002    0.002    9.462    9.462
 dbm_multiply                      1021 16.7    9.458    9.458    9.458    9.458
 compute_mat_P_omega                  1  7.0    0.003    0.003    8.415    8.415
 contract_cubic_gw                  480  9.0    0.002    0.002    8.366    8.366
 compute_mat_P_omega_contract        30  8.0    0.388    0.388    8.349    8.349
 compute_vec_Sigma_x_minus_vxc_       1  4.0    0.000    0.000    6.556    6.556
 hfx_ks_matrix                        2  7.0    0.002    0.002    6.157    6.157
 calc_screening_functions             2  8.0    2.604    2.604    5.151    5.151
 dbt_tas_mm_1N                      542 16.3    0.001    0.001    5.035    5.035
 fft_wrap_pw1pw2                     30  9.5    0.000    0.000    4.919    4.919
 powell_optimize                3307611  9.0    4.324    4.324    4.324    4.324
 fft_wrap_pw1pw2_200                 17 10.8    0.187    0.187    3.809    3.809
 pw_poisson_solve                     2  7.0    0.000    0.000    3.410    3.410
 integrate_four_center_main           3  8.0    1.430    1.430    3.327    3.327
 dbt_copy                          1432 10.4    0.018    0.018    3.086    3.086
 pw_poisson_rebuild                   2  8.0    0.052    0.052    2.866    2.866
 MTin_create_screen_fn                1 10.0    0.386    0.386    2.814    2.814
 sort_shells                          5  9.0    2.639    2.639    2.639    2.639
 fft3d_s                             31 11.2    2.597    2.597    2.624    2.624
 calc_pair_dist_radii                 2  8.0    0.826    0.826    2.602    2.602
 compute_mat_P_omega_calc_P_t        30  9.0    0.000    0.000    2.585    2.585
 qs_vxc_create                        2  7.0    0.036    0.036    2.548    2.548
 xc_vxc_pw_create                     1  9.0    0.077    0.077    2.512    2.512
 dbt_tas_mm_2                        31 15.1    0.000    0.000    2.383    2.383
 compute_mat_P_omega_calc_M_occ      30  9.0    0.379    0.379    2.074    2.074
 dbt_tas_mm_3N                      446 15.0    0.000    0.000    2.017    2.017
 integrate_four_center_bin          503 10.0    1.896    1.896    1.896    1.896
 compute_mat_P_omega_calc_M_vir      30  9.0    0.000    0.000    1.841    1.841
 dbt_tas_reserve_blocks_index      6293 14.5    0.441    0.441    1.614    1.614
 xc_pw_derive                         6 11.0    0.000    0.000    1.568    1.568
 dbt_reshape                        520 12.0    0.943    0.943    1.538    1.538
 mt0din                               1 11.0    1.460    1.460    1.460    1.460
 qs_rho_update_rho_low                2  5.0    0.001    0.001    1.358    1.358
 calculate_rho_elec                   2  6.0    0.098    0.098    1.355    1.355
 dbm_reserve_blocks                7314 15.5    1.293    1.293    1.293    1.293
 xc_rho_set_and_dset_create           1 10.0    0.045    0.045    1.291    1.291
 pw_gather_s                         16 11.3    1.262    1.262    1.262    1.262
 trace_sigma_gw                     480  9.0    0.412    0.412    1.254    1.254
 -------------------------------------------------------------------------------

 The number of warnings for this run is : 1
 
 -------------------------------------------------------------------------------
  **** **** ******  **  PROGRAM ENDED AT                 2024-05-02 19:08:10.564
 ***** ** ***  *** **   PROGRAM RAN ON                     n2cn0786.ab2021.local
 **    ****   ******    PROGRAM RAN BY                                  eprop2d4
 ***** **    ** ** **   PROGRAM PROCESS ID                               1465378
  **** **  *******  **  PROGRAM STOPPED IN /scratch/hpc-prf-eprop2d/eprop2d4_Mia
                                           /CP2K/SC_GW/LEV_10/Only_HOMO/4_MgO_PB
                                           E
