------------------------------------------------------------
          Invoking FHI-aims ...

          When using FHI-aims, please cite the following reference:

            Volker Blum, Ralf Gehrke, Felix Hanke, Paula Havu,
            Ville Havu, Xinguo Ren, Karsten Reuter, and Matthias Scheffler,
            'Ab Initio Molecular Simulations with Numeric Atom-Centered Orbitals',
            Computer Physics Communications 180, 2175-2196 (2009)

          In addition, many other developments in FHI-aims are likely important for
          your particular application. A partial list of references is given at the end of
          this file. Thank you for giving credit to the authors of these developments.

          For any questions about FHI-aims, please visit our slack channel at

            https://fhi-aims.slack.com

          and our main development and support site at

            https://aims-git.rz-berlin.mpg.de .

          The latter site, in particular, has a wiki to collect information, as well
          as an issue tracker to log discussions, suggest improvements, and report issues
          or bugs. https://aims-git.rz-berlin.mpg.de is also the main development site
          of the project and all new and updated code versions can be obtained there.
          Please send an email to aims-coordinators@fhi-berlin.mpg.de and we will add
          you to these sites. They are for you and everyone is welcome there.

------------------------------------------------------------



  Date     :  20240515, Time     :  051525.440
  Time zero on CPU 1             :   0.396595000000000E+00  s.
  Internal wall clock time zero  :           484982125.440  s.

  FHI-aims created a unique identifier for this run for later identification
  aims_uuid : 6F566A28-3C7A-4166-A269-4BD403C7D0B4

  Build configuration of the current instance of FHI-aims
  -------------------------------------------------------
  FHI-aims version      : 221103.1
  Commit number         : GITDIR-NOTFOUND
  CMake host system     : Linux-4.18.0-372.32.1.el8_6.x86_64
  CMake version         : 3.24.3
  Fortran compiler      : /opt/software/pc2/EB-SW/software/OpenMPI/4.1.4-GCC-12.2.0/bin/mpifort (GNU) version 12.2.0
  Fortran compiler flags: -O3 -ffree-line-length-none -fallow-argument-mismatch -march=znver3 -mprefer-vector-width=256
  C compiler            : /opt/software/pc2/EB-SW/software/GCCcore/12.2.0/bin/gcc (GNU) version 12.2.0
  C compiler flags      : -O3 -DNDEBUG -funroll-loops -march=znver3 -mprefer-vector-width=256
  HIP compiler          :
  HIP compiler flags    :
  HIP GPU arch          :
  Using MPI
  Using ScaLAPACK
  Using LibXC
  Using i-PI
  Using RLSY
  Linking against: /opt/software/pc2/EB-SW/software/ScaLAPACK/2.2.0-gompi-2022b-fb/lib/libscalapack.so
                   /opt/software/pc2/EB-SW/software/OpenBLAS/0.3.21-GCC-12.2.0/lib/libopenblas.so

  Using      512 parallel tasks.
  Task        0 on host n2cn0192 reporting.
  Task        1 on host n2cn0192 reporting.
  Task        2 on host n2cn0192 reporting.
  Task        3 on host n2cn0192 reporting.
  Task        4 on host n2cn0192 reporting.
  Task        5 on host n2cn0192 reporting.
  Task        6 on host n2cn0192 reporting.
  Task        7 on host n2cn0192 reporting.
  Task        8 on host n2cn0192 reporting.
  Task        9 on host n2cn0192 reporting.
  Task       10 on host n2cn0192 reporting.
  Task       11 on host n2cn0192 reporting.
  Task       12 on host n2cn0192 reporting.
  Task       13 on host n2cn0192 reporting.
  Task       14 on host n2cn0192 reporting.
  Task       15 on host n2cn0192 reporting.
  Task       16 on host n2cn0192 reporting.
  Task       17 on host n2cn0192 reporting.
  Task       18 on host n2cn0192 reporting.
  Task       19 on host n2cn0192 reporting.
  Task       20 on host n2cn0192 reporting.
  Task       21 on host n2cn0192 reporting.
  Task       22 on host n2cn0192 reporting.
  Task       23 on host n2cn0192 reporting.
  Task       24 on host n2cn0192 reporting.
  Task       25 on host n2cn0192 reporting.
  Task       26 on host n2cn0192 reporting.
  Task       27 on host n2cn0192 reporting.
  Task       28 on host n2cn0192 reporting.
  Task       29 on host n2cn0192 reporting.
  Task       30 on host n2cn0192 reporting.
  Task       31 on host n2cn0192 reporting.
  Task       32 on host n2cn0192 reporting.
  Task       33 on host n2cn0192 reporting.
  Task       34 on host n2cn0192 reporting.
  Task       35 on host n2cn0192 reporting.
  Task       36 on host n2cn0192 reporting.
  Task       37 on host n2cn0192 reporting.
  Task       38 on host n2cn0192 reporting.
  Task       39 on host n2cn0192 reporting.
  Task       40 on host n2cn0192 reporting.
  Task       41 on host n2cn0192 reporting.
  Task       42 on host n2cn0192 reporting.
  Task       43 on host n2cn0192 reporting.
  Task       44 on host n2cn0192 reporting.
  Task       45 on host n2cn0192 reporting.
  Task       46 on host n2cn0192 reporting.
  Task       47 on host n2cn0192 reporting.
  Task       48 on host n2cn0192 reporting.
  Task       49 on host n2cn0192 reporting.
  Task       50 on host n2cn0192 reporting.
  Task       51 on host n2cn0192 reporting.
  Task       52 on host n2cn0192 reporting.
  Task       53 on host n2cn0192 reporting.
  Task       54 on host n2cn0192 reporting.
  Task       55 on host n2cn0192 reporting.
  Task       56 on host n2cn0192 reporting.
  Task       57 on host n2cn0192 reporting.
  Task       58 on host n2cn0192 reporting.
  Task       59 on host n2cn0192 reporting.
  Task       60 on host n2cn0192 reporting.
  Task       61 on host n2cn0192 reporting.
  Task       62 on host n2cn0192 reporting.
  Task       63 on host n2cn0192 reporting.
  Task       64 on host n2cn0192 reporting.
  Task       65 on host n2cn0192 reporting.
  Task       66 on host n2cn0192 reporting.
  Task       67 on host n2cn0192 reporting.
  Task       68 on host n2cn0192 reporting.
  Task       69 on host n2cn0192 reporting.
  Task       70 on host n2cn0192 reporting.
  Task       71 on host n2cn0192 reporting.
  Task       72 on host n2cn0192 reporting.
  Task       73 on host n2cn0192 reporting.
  Task       74 on host n2cn0192 reporting.
  Task       75 on host n2cn0192 reporting.
  Task       76 on host n2cn0192 reporting.
  Task       77 on host n2cn0192 reporting.
  Task       78 on host n2cn0192 reporting.
  Task       79 on host n2cn0192 reporting.
  Task       80 on host n2cn0192 reporting.
  Task       81 on host n2cn0192 reporting.
  Task       82 on host n2cn0192 reporting.
  Task       83 on host n2cn0192 reporting.
  Task       84 on host n2cn0192 reporting.
  Task       85 on host n2cn0192 reporting.
  Task       86 on host n2cn0192 reporting.
  Task       87 on host n2cn0192 reporting.
  Task       88 on host n2cn0192 reporting.
  Task       89 on host n2cn0192 reporting.
  Task       90 on host n2cn0192 reporting.
  Task       91 on host n2cn0192 reporting.
  Task       92 on host n2cn0192 reporting.
  Task       93 on host n2cn0192 reporting.
  Task       94 on host n2cn0192 reporting.
  Task       95 on host n2cn0192 reporting.
  Task       96 on host n2cn0192 reporting.
  Task       97 on host n2cn0192 reporting.
  Task       98 on host n2cn0192 reporting.
  Task       99 on host n2cn0192 reporting.
  Task      100 on host n2cn0192 reporting.
  Task      101 on host n2cn0192 reporting.
  Task      102 on host n2cn0192 reporting.
  Task      103 on host n2cn0192 reporting.
  Task      104 on host n2cn0192 reporting.
  Task      105 on host n2cn0192 reporting.
  Task      106 on host n2cn0192 reporting.
  Task      107 on host n2cn0192 reporting.
  Task      108 on host n2cn0192 reporting.
  Task      109 on host n2cn0192 reporting.
  Task      110 on host n2cn0192 reporting.
  Task      111 on host n2cn0192 reporting.
  Task      112 on host n2cn0192 reporting.
  Task      113 on host n2cn0192 reporting.
  Task      114 on host n2cn0192 reporting.
  Task      115 on host n2cn0192 reporting.
  Task      116 on host n2cn0192 reporting.
  Task      117 on host n2cn0192 reporting.
  Task      118 on host n2cn0192 reporting.
  Task      119 on host n2cn0192 reporting.
  Task      120 on host n2cn0192 reporting.
  Task      121 on host n2cn0192 reporting.
  Task      122 on host n2cn0192 reporting.
  Task      123 on host n2cn0192 reporting.
  Task      124 on host n2cn0192 reporting.
  Task      125 on host n2cn0192 reporting.
  Task      126 on host n2cn0192 reporting.
  Task      127 on host n2cn0192 reporting.
  Task      128 on host n2cn1038 reporting.
  Task      129 on host n2cn1038 reporting.
  Task      130 on host n2cn1038 reporting.
  Task      131 on host n2cn1038 reporting.
  Task      132 on host n2cn1038 reporting.
  Task      133 on host n2cn1038 reporting.
  Task      134 on host n2cn1038 reporting.
  Task      135 on host n2cn1038 reporting.
  Task      136 on host n2cn1038 reporting.
  Task      137 on host n2cn1038 reporting.
  Task      138 on host n2cn1038 reporting.
  Task      139 on host n2cn1038 reporting.
  Task      140 on host n2cn1038 reporting.
  Task      141 on host n2cn1038 reporting.
  Task      142 on host n2cn1038 reporting.
  Task      143 on host n2cn1038 reporting.
  Task      144 on host n2cn1038 reporting.
  Task      145 on host n2cn1038 reporting.
  Task      146 on host n2cn1038 reporting.
  Task      147 on host n2cn1038 reporting.
  Task      148 on host n2cn1038 reporting.
  Task      149 on host n2cn1038 reporting.
  Task      150 on host n2cn1038 reporting.
  Task      151 on host n2cn1038 reporting.
  Task      152 on host n2cn1038 reporting.
  Task      153 on host n2cn1038 reporting.
  Task      154 on host n2cn1038 reporting.
  Task      155 on host n2cn1038 reporting.
  Task      156 on host n2cn1038 reporting.
  Task      157 on host n2cn1038 reporting.
  Task      158 on host n2cn1038 reporting.
  Task      159 on host n2cn1038 reporting.
  Task      160 on host n2cn1038 reporting.
  Task      161 on host n2cn1038 reporting.
  Task      162 on host n2cn1038 reporting.
  Task      163 on host n2cn1038 reporting.
  Task      164 on host n2cn1038 reporting.
  Task      165 on host n2cn1038 reporting.
  Task      166 on host n2cn1038 reporting.
  Task      167 on host n2cn1038 reporting.
  Task      168 on host n2cn1038 reporting.
  Task      169 on host n2cn1038 reporting.
  Task      170 on host n2cn1038 reporting.
  Task      171 on host n2cn1038 reporting.
  Task      172 on host n2cn1038 reporting.
  Task      173 on host n2cn1038 reporting.
  Task      174 on host n2cn1038 reporting.
  Task      175 on host n2cn1038 reporting.
  Task      176 on host n2cn1038 reporting.
  Task      177 on host n2cn1038 reporting.
  Task      178 on host n2cn1038 reporting.
  Task      179 on host n2cn1038 reporting.
  Task      180 on host n2cn1038 reporting.
  Task      181 on host n2cn1038 reporting.
  Task      182 on host n2cn1038 reporting.
  Task      183 on host n2cn1038 reporting.
  Task      184 on host n2cn1038 reporting.
  Task      185 on host n2cn1038 reporting.
  Task      186 on host n2cn1038 reporting.
  Task      187 on host n2cn1038 reporting.
  Task      188 on host n2cn1038 reporting.
  Task      189 on host n2cn1038 reporting.
  Task      190 on host n2cn1038 reporting.
  Task      191 on host n2cn1038 reporting.
  Task      192 on host n2cn1038 reporting.
  Task      193 on host n2cn1038 reporting.
  Task      194 on host n2cn1038 reporting.
  Task      195 on host n2cn1038 reporting.
  Task      196 on host n2cn1038 reporting.
  Task      197 on host n2cn1038 reporting.
  Task      198 on host n2cn1038 reporting.
  Task      199 on host n2cn1038 reporting.
  Task      200 on host n2cn1038 reporting.
  Task      201 on host n2cn1038 reporting.
  Task      202 on host n2cn1038 reporting.
  Task      203 on host n2cn1038 reporting.
  Task      204 on host n2cn1038 reporting.
  Task      205 on host n2cn1038 reporting.
  Task      206 on host n2cn1038 reporting.
  Task      207 on host n2cn1038 reporting.
  Task      208 on host n2cn1038 reporting.
  Task      209 on host n2cn1038 reporting.
  Task      210 on host n2cn1038 reporting.
  Task      211 on host n2cn1038 reporting.
  Task      212 on host n2cn1038 reporting.
  Task      213 on host n2cn1038 reporting.
  Task      214 on host n2cn1038 reporting.
  Task      215 on host n2cn1038 reporting.
  Task      216 on host n2cn1038 reporting.
  Task      217 on host n2cn1038 reporting.
  Task      218 on host n2cn1038 reporting.
  Task      219 on host n2cn1038 reporting.
  Task      220 on host n2cn1038 reporting.
  Task      221 on host n2cn1038 reporting.
  Task      222 on host n2cn1038 reporting.
  Task      223 on host n2cn1038 reporting.
  Task      224 on host n2cn1038 reporting.
  Task      225 on host n2cn1038 reporting.
  Task      226 on host n2cn1038 reporting.
  Task      227 on host n2cn1038 reporting.
  Task      228 on host n2cn1038 reporting.
  Task      229 on host n2cn1038 reporting.
  Task      230 on host n2cn1038 reporting.
  Task      231 on host n2cn1038 reporting.
  Task      232 on host n2cn1038 reporting.
  Task      233 on host n2cn1038 reporting.
  Task      234 on host n2cn1038 reporting.
  Task      235 on host n2cn1038 reporting.
  Task      236 on host n2cn1038 reporting.
  Task      237 on host n2cn1038 reporting.
  Task      238 on host n2cn1038 reporting.
  Task      239 on host n2cn1038 reporting.
  Task      240 on host n2cn1038 reporting.
  Task      241 on host n2cn1038 reporting.
  Task      242 on host n2cn1038 reporting.
  Task      243 on host n2cn1038 reporting.
  Task      244 on host n2cn1038 reporting.
  Task      245 on host n2cn1038 reporting.
  Task      246 on host n2cn1038 reporting.
  Task      247 on host n2cn1038 reporting.
  Task      248 on host n2cn1038 reporting.
  Task      249 on host n2cn1038 reporting.
  Task      250 on host n2cn1038 reporting.
  Task      251 on host n2cn1038 reporting.
  Task      252 on host n2cn1038 reporting.
  Task      253 on host n2cn1038 reporting.
  Task      254 on host n2cn1038 reporting.
  Task      255 on host n2cn1038 reporting.
  Task      256 on host n2cn1041 reporting.
  Task      257 on host n2cn1041 reporting.
  Task      258 on host n2cn1041 reporting.
  Task      259 on host n2cn1041 reporting.
  Task      260 on host n2cn1041 reporting.
  Task      261 on host n2cn1041 reporting.
  Task      262 on host n2cn1041 reporting.
  Task      263 on host n2cn1041 reporting.
  Task      264 on host n2cn1041 reporting.
  Task      265 on host n2cn1041 reporting.
  Task      266 on host n2cn1041 reporting.
  Task      267 on host n2cn1041 reporting.
  Task      268 on host n2cn1041 reporting.
  Task      269 on host n2cn1041 reporting.
  Task      270 on host n2cn1041 reporting.
  Task      271 on host n2cn1041 reporting.
  Task      272 on host n2cn1041 reporting.
  Task      273 on host n2cn1041 reporting.
  Task      274 on host n2cn1041 reporting.
  Task      275 on host n2cn1041 reporting.
  Task      276 on host n2cn1041 reporting.
  Task      277 on host n2cn1041 reporting.
  Task      278 on host n2cn1041 reporting.
  Task      279 on host n2cn1041 reporting.
  Task      280 on host n2cn1041 reporting.
  Task      281 on host n2cn1041 reporting.
  Task      282 on host n2cn1041 reporting.
  Task      283 on host n2cn1041 reporting.
  Task      284 on host n2cn1041 reporting.
  Task      285 on host n2cn1041 reporting.
  Task      286 on host n2cn1041 reporting.
  Task      287 on host n2cn1041 reporting.
  Task      288 on host n2cn1041 reporting.
  Task      289 on host n2cn1041 reporting.
  Task      290 on host n2cn1041 reporting.
  Task      291 on host n2cn1041 reporting.
  Task      292 on host n2cn1041 reporting.
  Task      293 on host n2cn1041 reporting.
  Task      294 on host n2cn1041 reporting.
  Task      295 on host n2cn1041 reporting.
  Task      296 on host n2cn1041 reporting.
  Task      297 on host n2cn1041 reporting.
  Task      298 on host n2cn1041 reporting.
  Task      299 on host n2cn1041 reporting.
  Task      300 on host n2cn1041 reporting.
  Task      301 on host n2cn1041 reporting.
  Task      302 on host n2cn1041 reporting.
  Task      303 on host n2cn1041 reporting.
  Task      304 on host n2cn1041 reporting.
  Task      305 on host n2cn1041 reporting.
  Task      306 on host n2cn1041 reporting.
  Task      307 on host n2cn1041 reporting.
  Task      308 on host n2cn1041 reporting.
  Task      309 on host n2cn1041 reporting.
  Task      310 on host n2cn1041 reporting.
  Task      311 on host n2cn1041 reporting.
  Task      312 on host n2cn1041 reporting.
  Task      313 on host n2cn1041 reporting.
  Task      314 on host n2cn1041 reporting.
  Task      315 on host n2cn1041 reporting.
  Task      316 on host n2cn1041 reporting.
  Task      317 on host n2cn1041 reporting.
  Task      318 on host n2cn1041 reporting.
  Task      319 on host n2cn1041 reporting.
  Task      320 on host n2cn1041 reporting.
  Task      321 on host n2cn1041 reporting.
  Task      322 on host n2cn1041 reporting.
  Task      323 on host n2cn1041 reporting.
  Task      324 on host n2cn1041 reporting.
  Task      325 on host n2cn1041 reporting.
  Task      326 on host n2cn1041 reporting.
  Task      327 on host n2cn1041 reporting.
  Task      328 on host n2cn1041 reporting.
  Task      329 on host n2cn1041 reporting.
  Task      330 on host n2cn1041 reporting.
  Task      331 on host n2cn1041 reporting.
  Task      332 on host n2cn1041 reporting.
  Task      333 on host n2cn1041 reporting.
  Task      334 on host n2cn1041 reporting.
  Task      335 on host n2cn1041 reporting.
  Task      336 on host n2cn1041 reporting.
  Task      337 on host n2cn1041 reporting.
  Task      338 on host n2cn1041 reporting.
  Task      339 on host n2cn1041 reporting.
  Task      340 on host n2cn1041 reporting.
  Task      341 on host n2cn1041 reporting.
  Task      342 on host n2cn1041 reporting.
  Task      343 on host n2cn1041 reporting.
  Task      344 on host n2cn1041 reporting.
  Task      345 on host n2cn1041 reporting.
  Task      346 on host n2cn1041 reporting.
  Task      347 on host n2cn1041 reporting.
  Task      348 on host n2cn1041 reporting.
  Task      349 on host n2cn1041 reporting.
  Task      350 on host n2cn1041 reporting.
  Task      351 on host n2cn1041 reporting.
  Task      352 on host n2cn1041 reporting.
  Task      353 on host n2cn1041 reporting.
  Task      354 on host n2cn1041 reporting.
  Task      355 on host n2cn1041 reporting.
  Task      356 on host n2cn1041 reporting.
  Task      357 on host n2cn1041 reporting.
  Task      358 on host n2cn1041 reporting.
  Task      359 on host n2cn1041 reporting.
  Task      360 on host n2cn1041 reporting.
  Task      361 on host n2cn1041 reporting.
  Task      362 on host n2cn1041 reporting.
  Task      363 on host n2cn1041 reporting.
  Task      364 on host n2cn1041 reporting.
  Task      365 on host n2cn1041 reporting.
  Task      366 on host n2cn1041 reporting.
  Task      367 on host n2cn1041 reporting.
  Task      368 on host n2cn1041 reporting.
  Task      369 on host n2cn1041 reporting.
  Task      370 on host n2cn1041 reporting.
  Task      371 on host n2cn1041 reporting.
  Task      372 on host n2cn1041 reporting.
  Task      373 on host n2cn1041 reporting.
  Task      374 on host n2cn1041 reporting.
  Task      375 on host n2cn1041 reporting.
  Task      376 on host n2cn1041 reporting.
  Task      377 on host n2cn1041 reporting.
  Task      378 on host n2cn1041 reporting.
  Task      379 on host n2cn1041 reporting.
  Task      380 on host n2cn1041 reporting.
  Task      381 on host n2cn1041 reporting.
  Task      382 on host n2cn1041 reporting.
  Task      383 on host n2cn1041 reporting.
  Task      384 on host n2cn1061 reporting.
  Task      385 on host n2cn1061 reporting.
  Task      386 on host n2cn1061 reporting.
  Task      387 on host n2cn1061 reporting.
  Task      388 on host n2cn1061 reporting.
  Task      389 on host n2cn1061 reporting.
  Task      390 on host n2cn1061 reporting.
  Task      391 on host n2cn1061 reporting.
  Task      392 on host n2cn1061 reporting.
  Task      393 on host n2cn1061 reporting.
  Task      394 on host n2cn1061 reporting.
  Task      395 on host n2cn1061 reporting.
  Task      396 on host n2cn1061 reporting.
  Task      397 on host n2cn1061 reporting.
  Task      398 on host n2cn1061 reporting.
  Task      399 on host n2cn1061 reporting.
  Task      400 on host n2cn1061 reporting.
  Task      401 on host n2cn1061 reporting.
  Task      402 on host n2cn1061 reporting.
  Task      403 on host n2cn1061 reporting.
  Task      404 on host n2cn1061 reporting.
  Task      405 on host n2cn1061 reporting.
  Task      406 on host n2cn1061 reporting.
  Task      407 on host n2cn1061 reporting.
  Task      408 on host n2cn1061 reporting.
  Task      409 on host n2cn1061 reporting.
  Task      410 on host n2cn1061 reporting.
  Task      411 on host n2cn1061 reporting.
  Task      412 on host n2cn1061 reporting.
  Task      413 on host n2cn1061 reporting.
  Task      414 on host n2cn1061 reporting.
  Task      415 on host n2cn1061 reporting.
  Task      416 on host n2cn1061 reporting.
  Task      417 on host n2cn1061 reporting.
  Task      418 on host n2cn1061 reporting.
  Task      419 on host n2cn1061 reporting.
  Task      420 on host n2cn1061 reporting.
  Task      421 on host n2cn1061 reporting.
  Task      422 on host n2cn1061 reporting.
  Task      423 on host n2cn1061 reporting.
  Task      424 on host n2cn1061 reporting.
  Task      425 on host n2cn1061 reporting.
  Task      426 on host n2cn1061 reporting.
  Task      427 on host n2cn1061 reporting.
  Task      428 on host n2cn1061 reporting.
  Task      429 on host n2cn1061 reporting.
  Task      430 on host n2cn1061 reporting.
  Task      431 on host n2cn1061 reporting.
  Task      432 on host n2cn1061 reporting.
  Task      433 on host n2cn1061 reporting.
  Task      434 on host n2cn1061 reporting.
  Task      435 on host n2cn1061 reporting.
  Task      436 on host n2cn1061 reporting.
  Task      437 on host n2cn1061 reporting.
  Task      438 on host n2cn1061 reporting.
  Task      439 on host n2cn1061 reporting.
  Task      440 on host n2cn1061 reporting.
  Task      441 on host n2cn1061 reporting.
  Task      442 on host n2cn1061 reporting.
  Task      443 on host n2cn1061 reporting.
  Task      444 on host n2cn1061 reporting.
  Task      445 on host n2cn1061 reporting.
  Task      446 on host n2cn1061 reporting.
  Task      447 on host n2cn1061 reporting.
  Task      448 on host n2cn1061 reporting.
  Task      449 on host n2cn1061 reporting.
  Task      450 on host n2cn1061 reporting.
  Task      451 on host n2cn1061 reporting.
  Task      452 on host n2cn1061 reporting.
  Task      453 on host n2cn1061 reporting.
  Task      454 on host n2cn1061 reporting.
  Task      455 on host n2cn1061 reporting.
  Task      456 on host n2cn1061 reporting.
  Task      457 on host n2cn1061 reporting.
  Task      458 on host n2cn1061 reporting.
  Task      459 on host n2cn1061 reporting.
  Task      460 on host n2cn1061 reporting.
  Task      461 on host n2cn1061 reporting.
  Task      462 on host n2cn1061 reporting.
  Task      463 on host n2cn1061 reporting.
  Task      464 on host n2cn1061 reporting.
  Task      465 on host n2cn1061 reporting.
  Task      466 on host n2cn1061 reporting.
  Task      467 on host n2cn1061 reporting.
  Task      468 on host n2cn1061 reporting.
  Task      469 on host n2cn1061 reporting.
  Task      470 on host n2cn1061 reporting.
  Task      471 on host n2cn1061 reporting.
  Task      472 on host n2cn1061 reporting.
  Task      473 on host n2cn1061 reporting.
  Task      474 on host n2cn1061 reporting.
  Task      475 on host n2cn1061 reporting.
  Task      476 on host n2cn1061 reporting.
  Task      477 on host n2cn1061 reporting.
  Task      478 on host n2cn1061 reporting.
  Task      479 on host n2cn1061 reporting.
  Task      480 on host n2cn1061 reporting.
  Task      481 on host n2cn1061 reporting.
  Task      482 on host n2cn1061 reporting.
  Task      483 on host n2cn1061 reporting.
  Task      484 on host n2cn1061 reporting.
  Task      485 on host n2cn1061 reporting.
  Task      486 on host n2cn1061 reporting.
  Task      487 on host n2cn1061 reporting.
  Task      488 on host n2cn1061 reporting.
  Task      489 on host n2cn1061 reporting.
  Task      490 on host n2cn1061 reporting.
  Task      491 on host n2cn1061 reporting.
  Task      492 on host n2cn1061 reporting.
  Task      493 on host n2cn1061 reporting.
  Task      494 on host n2cn1061 reporting.
  Task      495 on host n2cn1061 reporting.
  Task      496 on host n2cn1061 reporting.
  Task      497 on host n2cn1061 reporting.
  Task      498 on host n2cn1061 reporting.
  Task      499 on host n2cn1061 reporting.
  Task      500 on host n2cn1061 reporting.
  Task      501 on host n2cn1061 reporting.
  Task      502 on host n2cn1061 reporting.
  Task      503 on host n2cn1061 reporting.
  Task      504 on host n2cn1061 reporting.
  Task      505 on host n2cn1061 reporting.
  Task      506 on host n2cn1061 reporting.
  Task      507 on host n2cn1061 reporting.
  Task      508 on host n2cn1061 reporting.
  Task      509 on host n2cn1061 reporting.
  Task      510 on host n2cn1061 reporting.
  Task      511 on host n2cn1061 reporting.

  Performing system and environment tests:
  | Environment variable OMP_NUM_THREADS correctly set to 1.
  | Checking for ScaLAPACK...
  | Testing pdtran()...
  | All pdtran() tests passed.

  Obtaining array dimensions for all initial allocations:
  
  -----------------------------------------------------------------------
  Parsing control.in (first pass over file, find array dimensions only).
  The contents of control.in will be repeated verbatim below
  unless switched off by setting 'verbatim_writeout .false.' .
  in the first line of control.in .
  -----------------------------------------------------------------------
  
  #control.in header for database project
  #using def2-QVPZ basis for light and heavy elements
  
  #########################################
    xc pbe
    qpe_calc           ev_scgw0
    #RI_method v
    #spin               collinear
    #default_initial_moment 0.01
    spin none
  
    iterations_sc_cd 20
    frequency_points 2000
    full_cmplx_sigma .true.
  
    anacon_type  1
    n_anacon_par 128
    contour_def_gw   3 23
    nocc_sc_cd 10
    nvirt_sc_cd 10
    contour_eta 0.004
    state_lower_limit 1
    state_upper_limit 500
    #print_self_energy 12 -20.0 0.0
  
    relativistic none
    override_relativity .true.
    partition_type rho_r2
    density_update_method density_matrix
  
    calc_spectral_func -20.0 0.0 0.001
  
  #########################################
    occupation_type    gaussian 0.000001
    mixer              pulay
      n_max_pulay        10
      charge_mix_param   0.2
    sc_accuracy_rho    1E-5
    sc_accuracy_eev    1E-5
    sc_accuracy_etot   1E-5
    sc_iter_limit      400
  #########################################
    prodbas_threshold  1.e-5
    KS_method          serial
    empty_states       25000
    # Do not check for overlapping xxx matrix
    # Not recommended
    override_illconditioning .true.
  #########################################
  ################################################################################
  #
  #  FHI-aims code project
  #  VB, Fritz-Haber Institut, 2009
  #
  #  Suggested "light" defaults for O atom (to be pasted into control.in file)
  #  Be sure to double-check any results obtained with these settings for post-processing,
  #  e.g., with the "tight" defaults and larger basis sets.
  #
  ################################################################################
  ################################################################################
  #
  #  FHI-aims code project
  #  VB, Fritz-Haber Institut, 2007
  #
  #  Suggested "safe" defaults for O atom (to be pasted into control.in file)
  #
  ################################################################################
    species        O
  #     global species definitions
      nucleus             8
      mass                15.9994
  #
      l_hartree           8
  #
      cut_pot             4.0  2.0  1.0
      basis_dep_cutoff    0.d0
  #
      radial_base         36 7.0
      radial_multiplier   2
       angular_grids specified
        division   0.4087  110
        division   0.5181  194
        division   0.6184  302
        division   0.7315  434
        division   0.7934  590
        #division   0.9656  770
        #division   1.4041  974
        #outer_grid 974
        outer_grid 590
  #
  #  Definition of "minimal" basis
  #
  ################################################################################
  #     valence basis states
      valence      2  s   2.
      valence      2  p   4.
  #     ion occupancy
      ion_occ      2  s   1.
      ion_occ      2  p   3.
  ################################################################################
  #
  #  Suggested additional basis functions. For production calculations,
  #  uncomment them one after another (the most important basis functions are
  #  listed first).
  #
  #  Basis constructed for dimers: 0.5 A, 0.7 A, 1.0 A, 1.5 A, 2.5 A
  #
  ################################################################################
  # The default minimal basis should not be included
  include_min_basis .false.
  # Use spherical functions?
  pure_gauss .true.
  # O def2-QZVP
  gaussian 0 8
 116506.4690800              0.40383857939E-04
  17504.3497240              0.31255139004E-03
   3993.4513230              0.16341473495E-02
   1133.0063186              0.68283224757E-02
    369.99569594             0.24124410221E-01
    133.62074349             0.72730206154E-01
     52.035643649            0.17934429892
     21.461939313            0.33059588895
  gaussian 0 2
     89.835051252            0.96468652996E-01
     26.428010844            0.94117481120
  gaussian 0 1 9.2822824649
  gaussian 0 1 4.0947728533
  gaussian 0 1 1.3255349078
  gaussian 0 1 0.51877230787
  gaussian 0 1 0.19772676454
  gaussian 1 5
    191.15255810             0.25115697705E-02
     45.233356739            0.20039240864E-01
     14.353465922            0.93609064762E-01
      5.2422371832           0.30618127124
      2.0792418599           0.67810501439
  gaussian 1 1 0.84282371424
  gaussian 1 1 0.33617694891
  gaussian 1 1 0.12863997974
  gaussian 2 1 3.77500000
  gaussian 2 1 1.30000000
  gaussian 2 1 0.44400000
  gaussian 3 1 2.66600000
  gaussian 3 1 0.85900000
  gaussian 4 1 1.84600000
  
  
  -----------------------------------------------------------------------
  Completed first pass over input file control.in .
  -----------------------------------------------------------------------
  
  
  -----------------------------------------------------------------------
  Parsing geometry.in (first pass over file, find array dimensions only).
  The contents of geometry.in will be repeated verbatim below
  unless switched off by setting 'verbatim_writeout .false.' .
  in the first line of geometry.in .
  -----------------------------------------------------------------------
  
  atom  0.0000 0.0000 0.0000 O
  atom  1.0869 0.0000 0.6600 O
  atom -1.0869 0.0000 0.6600 O
  
  -----------------------------------------------------------------------
  Completed first pass over input file geometry.in .
  -----------------------------------------------------------------------
  

  Basic array size parameters:
  | Number of species                 :        1
  | Number of atoms                   :        3
  | Max. basis fn. angular momentum   :        4
  | Max. atomic/ionic basis occupied n:        2
  | Max. number of basis fn. types    :        1
  | Max. radial fns per species/type  :       24
  | Max. logarithmic grid size        :     1301
  | Max. radial integration grid size :       73
  | Max. angular integration grid size:      590
  | Max. angular grid division number :        8
  | Radial grid for Hartree potential :     1301
  | Number of spin channels           :        1

------------------------------------------------------------
          Reading file control.in.
------------------------------------------------------------
  XC: Using PBE gradient-corrected functionals.
  Eigenvalue self-consistent GW0 quasiparticle calculation (without MO update) of excited state will be started after the DFT/HF calculation.
  Spin treatment: No spin polarisation.
  Number of iterations for ev_scGW or ev_scGW0 with CD:    20
  Number of frequency points used for the self-energy calculation:   2000
  Evaluate full complex self energy for CD (including complex integral term).
  Using Pade approximation for analytical continuation.
  Number of fitting parameters for analytical continuation :    128
  Contour deformation in GW for the levels:      3     to      23
  Number of occupied states explicity calculated in ev_scGW or ev_scGW0 with CD:    10 for spin   1
  Number of virtual states explicity calculated in ev_scGW or ev_scGW0 with CD:     10 for spin   1
  Broadening parameter eta:       0.004000
  Lower limit of the eigenstates for the self-energy correction :      1
  Upper limit of the eigenstates for the self-energy correction :    500
  Non-relativistic treatment of kinetic energy.
  override_relativity: Explicitly overriding any built-in relativity checks.
  If you use this flag, you should really know what you are doing.
  Partition function in integrals calculations: rho / r^2
  Spectral function will be calculated from:   -20.000   to        0.000  eV
  Occupation type: Gaussian broadening, width =   0.100000E-05 eV.
  Using pulay charge density mixing.
  Pulay mixing - number of memorized iterations:   10
  Charge density mixing - mixing parameter:     0.2000
  Convergence accuracy of self-consistent charge density:  0.1000E-04
  Convergence accuracy of sum of eigenvalues:  0.1000E-04
  Convergence accuracy of total energy:  0.1000E-04
  Maximum number of s.-c. iterations  :   400
  Threshold for auxiliary basis singularities:  0.1000E-04
  Kohn-Sham eigenvalues and eigenfunctions calculated by LAPACK via ELSI.
  Number of empty states per atom:    25000
  override_illconditioning: Explicitly overriding any built-in checks for an ill-conditioned overlap matrix.
  *** WARNING: If you use this flag, you should really know what you are doing.
  *** DO NOT keep this flag set by default in all your control.in files.

  Reading configuration options for species O                   .
  | Found nuclear charge :   8.0000
  | Found atomic mass :    15.999400000000000      amu
  | Found l_max for Hartree potential  :   8
  | Found cutoff potl. onset [A], width [A], scale factor :    4.00000    2.00000    1.00000
  | Threshold for basis-dependent cutoff potential is   0.000000E+00
  | Found data for basic radial integration grid :    36 points, outermost radius =    7.000 A
  | Found multiplier for basic radial grid :   2
  | Found angular grid specification: user-specified.
  | Specified grid contains     6 separate shells.
  | Check grid settings after all constraints further below.
  | Found free-atom valence shell :  2 s   2.000
  | Found free-atom valence shell :  2 p   4.000
  | No ionic wave fns used. Skipping ion_occ.
  | No ionic wave fns used. Skipping ion_occ.
  | Found request to include minimal basis fns. :     F
  | Found request to include pure gaussian fns. :     T
  | Found contracted cartesian Gaussian basis function :  L = 0 ,   8 elementary Gaussians:
  |   alpha = 0.116506E+06 weight = 0.403839E-04
  |   alpha = 0.175043E+05 weight = 0.312551E-03
  |   alpha = 0.399345E+04 weight = 0.163415E-02
  |   alpha = 0.113301E+04 weight = 0.682832E-02
  |   alpha = 0.369996E+03 weight = 0.241244E-01
  |   alpha = 0.133621E+03 weight = 0.727302E-01
  |   alpha = 0.520356E+02 weight = 0.179344E+00
  |   alpha = 0.214619E+02 weight = 0.330596E+00
  |   In terms of angular momentum, this radial function adds: 
  |     1 s-type basis function
  | Found contracted cartesian Gaussian basis function :  L = 0 ,   2 elementary Gaussians:
  |   alpha = 0.898351E+02 weight = 0.964687E-01
  |   alpha = 0.264280E+02 weight = 0.941175E+00
  |   In terms of angular momentum, this radial function adds: 
  |     1 s-type basis function
  | Found primitive cartesian Gaussian basis function :  0 0.928228E+01
  |   In terms of angular momentum, this radial function adds: 
  |     1 s-type basis function
  | Found primitive cartesian Gaussian basis function :  0 0.409477E+01
  |   In terms of angular momentum, this radial function adds: 
  |     1 s-type basis function
  | Found primitive cartesian Gaussian basis function :  0 0.132553E+01
  |   In terms of angular momentum, this radial function adds: 
  |     1 s-type basis function
  | Found primitive cartesian Gaussian basis function :  0 0.518772E+00
  |   In terms of angular momentum, this radial function adds: 
  |     1 s-type basis function
  | Found primitive cartesian Gaussian basis function :  0 0.197727E+00
  |   In terms of angular momentum, this radial function adds: 
  |     1 s-type basis function
  | Found contracted cartesian Gaussian basis function :  L = 1 ,   5 elementary Gaussians:
  |   alpha = 0.191153E+03 weight = 0.251157E-02
  |   alpha = 0.452334E+02 weight = 0.200392E-01
  |   alpha = 0.143535E+02 weight = 0.936091E-01
  |   alpha = 0.524224E+01 weight = 0.306181E+00
  |   alpha = 0.207924E+01 weight = 0.678105E+00
  |   In terms of angular momentum, this radial function adds: 
  |     3 p-type basis functions
  | Found primitive cartesian Gaussian basis function :  1 0.842824E+00
  |   In terms of angular momentum, this radial function adds: 
  |     3 p-type basis functions
  | Found primitive cartesian Gaussian basis function :  1 0.336177E+00
  |   In terms of angular momentum, this radial function adds: 
  |     3 p-type basis functions
  | Found primitive cartesian Gaussian basis function :  1 0.128640E+00
  |   In terms of angular momentum, this radial function adds: 
  |     3 p-type basis functions
  | Found primitive cartesian Gaussian basis function :  2 0.377500E+01
  |   In terms of angular momentum, this radial function adds: 
  |     5 d-type basis functions
  | Found primitive cartesian Gaussian basis function :  2 0.130000E+01
  |   In terms of angular momentum, this radial function adds: 
  |     5 d-type basis functions
  | Found primitive cartesian Gaussian basis function :  2 0.444000E+00
  |   In terms of angular momentum, this radial function adds: 
  |     5 d-type basis functions
  | Found primitive cartesian Gaussian basis function :  3 0.266600E+01
  |   In terms of angular momentum, this radial function adds: 
  |     7 f-type basis functions
  | Found primitive cartesian Gaussian basis function :  3 0.859000E+00
  |   In terms of angular momentum, this radial function adds: 
  |     7 f-type basis functions
  | Found primitive cartesian Gaussian basis function :  4 0.184600E+01
  |   In terms of angular momentum, this radial function adds: 
  |     9 g-type basis functions
  Species O                   : Missing cutoff potential type.
  Defaulting to exp(1/x)/(1-x)^2 type cutoff potential.
  Species O : No 'logarithmic' tag. Using default grid for free atom:
  | Default logarithmic grid data [bohr] : 0.1000E-03 0.1000E+03 0.1012E+01
  Species O : On-site basis accuracy parameter (for Gram-Schmidt orthonormalisation) not specified.
  Using default value basis_acc =  0.1000000E-03.
  Species O                   : Using default innermost maximum threshold i_radial=  2 for radial functions.
  Species O                   : Default cutoff onset for free atom density etc. is infinite
  since the product basis is used (hybrid functionals, Hartree-Fock, GW etc.).
  Species O                   : Basic radial grid will be enhanced according to radial_multiplier =   2, to contain    73 grid points.

  Finished reading input file 'control.in'.

------------------------------------------------------------


------------------------------------------------------------
          Reading geometry description geometry.in.
------------------------------------------------------------
  | The smallest distance between any two atoms is         1.27159412 AA.
  | The first atom of this pair is atom number                      1 .
  | The second atom of this pair is atom number                     2 .
  Input structure read successfully.
  The structure contains        3 atoms,  and a total of         24.000 electrons.

  Input geometry:
  | No unit cell requested.
  | Atomic structure:
  |       Atom                x [A]            y [A]            z [A]
  |    1: Species O             0.00000000        0.00000000        0.00000000
  |    2: Species O             1.08690000        0.00000000        0.66000000
  |    3: Species O            -1.08690000        0.00000000        0.66000000


  Finished reading input file 'geometry.in'.



  Consistency checks for stacksize environment parameter are next.

  | Maximum stacksize for task 0: unlimited
  | Maximum stacksize for task 1: unlimited
  | Maximum stacksize for task 2: unlimited
  | Maximum stacksize for task 3: unlimited
  | Maximum stacksize for task 4: unlimited
  | Maximum stacksize for task 5: unlimited
  | Maximum stacksize for task 6: unlimited
  | Maximum stacksize for task 7: unlimited
  | Maximum stacksize for task 8: unlimited
  | Maximum stacksize for task 9: unlimited
  | Maximum stacksize for task 10: unlimited
  | Maximum stacksize for task 11: unlimited
  | Maximum stacksize for task 12: unlimited
  | Maximum stacksize for task 13: unlimited
  | Maximum stacksize for task 14: unlimited
  | Maximum stacksize for task 15: unlimited
  | Maximum stacksize for task 16: unlimited
  | Maximum stacksize for task 17: unlimited
  | Maximum stacksize for task 18: unlimited
  | Maximum stacksize for task 19: unlimited
  | Maximum stacksize for task 20: unlimited
  | Maximum stacksize for task 21: unlimited
  | Maximum stacksize for task 22: unlimited
  | Maximum stacksize for task 23: unlimited
  | Maximum stacksize for task 24: unlimited
  | Maximum stacksize for task 25: unlimited
  | Maximum stacksize for task 26: unlimited
  | Maximum stacksize for task 27: unlimited
  | Maximum stacksize for task 28: unlimited
  | Maximum stacksize for task 29: unlimited
  | Maximum stacksize for task 30: unlimited
  | Maximum stacksize for task 31: unlimited
  | Maximum stacksize for task 32: unlimited
  | Maximum stacksize for task 33: unlimited
  | Maximum stacksize for task 34: unlimited
  | Maximum stacksize for task 35: unlimited
  | Maximum stacksize for task 36: unlimited
  | Maximum stacksize for task 37: unlimited
  | Maximum stacksize for task 38: unlimited
  | Maximum stacksize for task 39: unlimited
  | Maximum stacksize for task 40: unlimited
  | Maximum stacksize for task 41: unlimited
  | Maximum stacksize for task 42: unlimited
  | Maximum stacksize for task 43: unlimited
  | Maximum stacksize for task 44: unlimited
  | Maximum stacksize for task 45: unlimited
  | Maximum stacksize for task 46: unlimited
  | Maximum stacksize for task 47: unlimited
  | Maximum stacksize for task 48: unlimited
  | Maximum stacksize for task 49: unlimited
  | Maximum stacksize for task 50: unlimited
  | Maximum stacksize for task 51: unlimited
  | Maximum stacksize for task 52: unlimited
  | Maximum stacksize for task 53: unlimited
  | Maximum stacksize for task 54: unlimited
  | Maximum stacksize for task 55: unlimited
  | Maximum stacksize for task 56: unlimited
  | Maximum stacksize for task 57: unlimited
  | Maximum stacksize for task 58: unlimited
  | Maximum stacksize for task 59: unlimited
  | Maximum stacksize for task 60: unlimited
  | Maximum stacksize for task 61: unlimited
  | Maximum stacksize for task 62: unlimited
  | Maximum stacksize for task 63: unlimited
  | Maximum stacksize for task 64: unlimited
  | Maximum stacksize for task 65: unlimited
  | Maximum stacksize for task 66: unlimited
  | Maximum stacksize for task 67: unlimited
  | Maximum stacksize for task 68: unlimited
  | Maximum stacksize for task 69: unlimited
  | Maximum stacksize for task 70: unlimited
  | Maximum stacksize for task 71: unlimited
  | Maximum stacksize for task 72: unlimited
  | Maximum stacksize for task 73: unlimited
  | Maximum stacksize for task 74: unlimited
  | Maximum stacksize for task 75: unlimited
  | Maximum stacksize for task 76: unlimited
  | Maximum stacksize for task 77: unlimited
  | Maximum stacksize for task 78: unlimited
  | Maximum stacksize for task 79: unlimited
  | Maximum stacksize for task 80: unlimited
  | Maximum stacksize for task 81: unlimited
  | Maximum stacksize for task 82: unlimited
  | Maximum stacksize for task 83: unlimited
  | Maximum stacksize for task 84: unlimited
  | Maximum stacksize for task 85: unlimited
  | Maximum stacksize for task 86: unlimited
  | Maximum stacksize for task 87: unlimited
  | Maximum stacksize for task 88: unlimited
  | Maximum stacksize for task 89: unlimited
  | Maximum stacksize for task 90: unlimited
  | Maximum stacksize for task 91: unlimited
  | Maximum stacksize for task 92: unlimited
  | Maximum stacksize for task 93: unlimited
  | Maximum stacksize for task 94: unlimited
  | Maximum stacksize for task 95: unlimited
  | Maximum stacksize for task 96: unlimited
  | Maximum stacksize for task 97: unlimited
  | Maximum stacksize for task 98: unlimited
  | Maximum stacksize for task 99: unlimited
  | Maximum stacksize for task 100: unlimited
  | Maximum stacksize for task 101: unlimited
  | Maximum stacksize for task 102: unlimited
  | Maximum stacksize for task 103: unlimited
  | Maximum stacksize for task 104: unlimited
  | Maximum stacksize for task 105: unlimited
  | Maximum stacksize for task 106: unlimited
  | Maximum stacksize for task 107: unlimited
  | Maximum stacksize for task 108: unlimited
  | Maximum stacksize for task 109: unlimited
  | Maximum stacksize for task 110: unlimited
  | Maximum stacksize for task 111: unlimited
  | Maximum stacksize for task 112: unlimited
  | Maximum stacksize for task 113: unlimited
  | Maximum stacksize for task 114: unlimited
  | Maximum stacksize for task 115: unlimited
  | Maximum stacksize for task 116: unlimited
  | Maximum stacksize for task 117: unlimited
  | Maximum stacksize for task 118: unlimited
  | Maximum stacksize for task 119: unlimited
  | Maximum stacksize for task 120: unlimited
  | Maximum stacksize for task 121: unlimited
  | Maximum stacksize for task 122: unlimited
  | Maximum stacksize for task 123: unlimited
  | Maximum stacksize for task 124: unlimited
  | Maximum stacksize for task 125: unlimited
  | Maximum stacksize for task 126: unlimited
  | Maximum stacksize for task 127: unlimited
  | Maximum stacksize for task 128: unlimited
  | Maximum stacksize for task 129: unlimited
  | Maximum stacksize for task 130: unlimited
  | Maximum stacksize for task 131: unlimited
  | Maximum stacksize for task 132: unlimited
  | Maximum stacksize for task 133: unlimited
  | Maximum stacksize for task 134: unlimited
  | Maximum stacksize for task 135: unlimited
  | Maximum stacksize for task 136: unlimited
  | Maximum stacksize for task 137: unlimited
  | Maximum stacksize for task 138: unlimited
  | Maximum stacksize for task 139: unlimited
  | Maximum stacksize for task 140: unlimited
  | Maximum stacksize for task 141: unlimited
  | Maximum stacksize for task 142: unlimited
  | Maximum stacksize for task 143: unlimited
  | Maximum stacksize for task 144: unlimited
  | Maximum stacksize for task 145: unlimited
  | Maximum stacksize for task 146: unlimited
  | Maximum stacksize for task 147: unlimited
  | Maximum stacksize for task 148: unlimited
  | Maximum stacksize for task 149: unlimited
  | Maximum stacksize for task 150: unlimited
  | Maximum stacksize for task 151: unlimited
  | Maximum stacksize for task 152: unlimited
  | Maximum stacksize for task 153: unlimited
  | Maximum stacksize for task 154: unlimited
  | Maximum stacksize for task 155: unlimited
  | Maximum stacksize for task 156: unlimited
  | Maximum stacksize for task 157: unlimited
  | Maximum stacksize for task 158: unlimited
  | Maximum stacksize for task 159: unlimited
  | Maximum stacksize for task 160: unlimited
  | Maximum stacksize for task 161: unlimited
  | Maximum stacksize for task 162: unlimited
  | Maximum stacksize for task 163: unlimited
  | Maximum stacksize for task 164: unlimited
  | Maximum stacksize for task 165: unlimited
  | Maximum stacksize for task 166: unlimited
  | Maximum stacksize for task 167: unlimited
  | Maximum stacksize for task 168: unlimited
  | Maximum stacksize for task 169: unlimited
  | Maximum stacksize for task 170: unlimited
  | Maximum stacksize for task 171: unlimited
  | Maximum stacksize for task 172: unlimited
  | Maximum stacksize for task 173: unlimited
  | Maximum stacksize for task 174: unlimited
  | Maximum stacksize for task 175: unlimited
  | Maximum stacksize for task 176: unlimited
  | Maximum stacksize for task 177: unlimited
  | Maximum stacksize for task 178: unlimited
  | Maximum stacksize for task 179: unlimited
  | Maximum stacksize for task 180: unlimited
  | Maximum stacksize for task 181: unlimited
  | Maximum stacksize for task 182: unlimited
  | Maximum stacksize for task 183: unlimited
  | Maximum stacksize for task 184: unlimited
  | Maximum stacksize for task 185: unlimited
  | Maximum stacksize for task 186: unlimited
  | Maximum stacksize for task 187: unlimited
  | Maximum stacksize for task 188: unlimited
  | Maximum stacksize for task 189: unlimited
  | Maximum stacksize for task 190: unlimited
  | Maximum stacksize for task 191: unlimited
  | Maximum stacksize for task 192: unlimited
  | Maximum stacksize for task 193: unlimited
  | Maximum stacksize for task 194: unlimited
  | Maximum stacksize for task 195: unlimited
  | Maximum stacksize for task 196: unlimited
  | Maximum stacksize for task 197: unlimited
  | Maximum stacksize for task 198: unlimited
  | Maximum stacksize for task 199: unlimited
  | Maximum stacksize for task 200: unlimited
  | Maximum stacksize for task 201: unlimited
  | Maximum stacksize for task 202: unlimited
  | Maximum stacksize for task 203: unlimited
  | Maximum stacksize for task 204: unlimited
  | Maximum stacksize for task 205: unlimited
  | Maximum stacksize for task 206: unlimited
  | Maximum stacksize for task 207: unlimited
  | Maximum stacksize for task 208: unlimited
  | Maximum stacksize for task 209: unlimited
  | Maximum stacksize for task 210: unlimited
  | Maximum stacksize for task 211: unlimited
  | Maximum stacksize for task 212: unlimited
  | Maximum stacksize for task 213: unlimited
  | Maximum stacksize for task 214: unlimited
  | Maximum stacksize for task 215: unlimited
  | Maximum stacksize for task 216: unlimited
  | Maximum stacksize for task 217: unlimited
  | Maximum stacksize for task 218: unlimited
  | Maximum stacksize for task 219: unlimited
  | Maximum stacksize for task 220: unlimited
  | Maximum stacksize for task 221: unlimited
  | Maximum stacksize for task 222: unlimited
  | Maximum stacksize for task 223: unlimited
  | Maximum stacksize for task 224: unlimited
  | Maximum stacksize for task 225: unlimited
  | Maximum stacksize for task 226: unlimited
  | Maximum stacksize for task 227: unlimited
  | Maximum stacksize for task 228: unlimited
  | Maximum stacksize for task 229: unlimited
  | Maximum stacksize for task 230: unlimited
  | Maximum stacksize for task 231: unlimited
  | Maximum stacksize for task 232: unlimited
  | Maximum stacksize for task 233: unlimited
  | Maximum stacksize for task 234: unlimited
  | Maximum stacksize for task 235: unlimited
  | Maximum stacksize for task 236: unlimited
  | Maximum stacksize for task 237: unlimited
  | Maximum stacksize for task 238: unlimited
  | Maximum stacksize for task 239: unlimited
  | Maximum stacksize for task 240: unlimited
  | Maximum stacksize for task 241: unlimited
  | Maximum stacksize for task 242: unlimited
  | Maximum stacksize for task 243: unlimited
  | Maximum stacksize for task 244: unlimited
  | Maximum stacksize for task 245: unlimited
  | Maximum stacksize for task 246: unlimited
  | Maximum stacksize for task 247: unlimited
  | Maximum stacksize for task 248: unlimited
  | Maximum stacksize for task 249: unlimited
  | Maximum stacksize for task 250: unlimited
  | Maximum stacksize for task 251: unlimited
  | Maximum stacksize for task 252: unlimited
  | Maximum stacksize for task 253: unlimited
  | Maximum stacksize for task 254: unlimited
  | Maximum stacksize for task 255: unlimited
  | Maximum stacksize for task 256: unlimited
  | Maximum stacksize for task 257: unlimited
  | Maximum stacksize for task 258: unlimited
  | Maximum stacksize for task 259: unlimited
  | Maximum stacksize for task 260: unlimited
  | Maximum stacksize for task 261: unlimited
  | Maximum stacksize for task 262: unlimited
  | Maximum stacksize for task 263: unlimited
  | Maximum stacksize for task 264: unlimited
  | Maximum stacksize for task 265: unlimited
  | Maximum stacksize for task 266: unlimited
  | Maximum stacksize for task 267: unlimited
  | Maximum stacksize for task 268: unlimited
  | Maximum stacksize for task 269: unlimited
  | Maximum stacksize for task 270: unlimited
  | Maximum stacksize for task 271: unlimited
  | Maximum stacksize for task 272: unlimited
  | Maximum stacksize for task 273: unlimited
  | Maximum stacksize for task 274: unlimited
  | Maximum stacksize for task 275: unlimited
  | Maximum stacksize for task 276: unlimited
  | Maximum stacksize for task 277: unlimited
  | Maximum stacksize for task 278: unlimited
  | Maximum stacksize for task 279: unlimited
  | Maximum stacksize for task 280: unlimited
  | Maximum stacksize for task 281: unlimited
  | Maximum stacksize for task 282: unlimited
  | Maximum stacksize for task 283: unlimited
  | Maximum stacksize for task 284: unlimited
  | Maximum stacksize for task 285: unlimited
  | Maximum stacksize for task 286: unlimited
  | Maximum stacksize for task 287: unlimited
  | Maximum stacksize for task 288: unlimited
  | Maximum stacksize for task 289: unlimited
  | Maximum stacksize for task 290: unlimited
  | Maximum stacksize for task 291: unlimited
  | Maximum stacksize for task 292: unlimited
  | Maximum stacksize for task 293: unlimited
  | Maximum stacksize for task 294: unlimited
  | Maximum stacksize for task 295: unlimited
  | Maximum stacksize for task 296: unlimited
  | Maximum stacksize for task 297: unlimited
  | Maximum stacksize for task 298: unlimited
  | Maximum stacksize for task 299: unlimited
  | Maximum stacksize for task 300: unlimited
  | Maximum stacksize for task 301: unlimited
  | Maximum stacksize for task 302: unlimited
  | Maximum stacksize for task 303: unlimited
  | Maximum stacksize for task 304: unlimited
  | Maximum stacksize for task 305: unlimited
  | Maximum stacksize for task 306: unlimited
  | Maximum stacksize for task 307: unlimited
  | Maximum stacksize for task 308: unlimited
  | Maximum stacksize for task 309: unlimited
  | Maximum stacksize for task 310: unlimited
  | Maximum stacksize for task 311: unlimited
  | Maximum stacksize for task 312: unlimited
  | Maximum stacksize for task 313: unlimited
  | Maximum stacksize for task 314: unlimited
  | Maximum stacksize for task 315: unlimited
  | Maximum stacksize for task 316: unlimited
  | Maximum stacksize for task 317: unlimited
  | Maximum stacksize for task 318: unlimited
  | Maximum stacksize for task 319: unlimited
  | Maximum stacksize for task 320: unlimited
  | Maximum stacksize for task 321: unlimited
  | Maximum stacksize for task 322: unlimited
  | Maximum stacksize for task 323: unlimited
  | Maximum stacksize for task 324: unlimited
  | Maximum stacksize for task 325: unlimited
  | Maximum stacksize for task 326: unlimited
  | Maximum stacksize for task 327: unlimited
  | Maximum stacksize for task 328: unlimited
  | Maximum stacksize for task 329: unlimited
  | Maximum stacksize for task 330: unlimited
  | Maximum stacksize for task 331: unlimited
  | Maximum stacksize for task 332: unlimited
  | Maximum stacksize for task 333: unlimited
  | Maximum stacksize for task 334: unlimited
  | Maximum stacksize for task 335: unlimited
  | Maximum stacksize for task 336: unlimited
  | Maximum stacksize for task 337: unlimited
  | Maximum stacksize for task 338: unlimited
  | Maximum stacksize for task 339: unlimited
  | Maximum stacksize for task 340: unlimited
  | Maximum stacksize for task 341: unlimited
  | Maximum stacksize for task 342: unlimited
  | Maximum stacksize for task 343: unlimited
  | Maximum stacksize for task 344: unlimited
  | Maximum stacksize for task 345: unlimited
  | Maximum stacksize for task 346: unlimited
  | Maximum stacksize for task 347: unlimited
  | Maximum stacksize for task 348: unlimited
  | Maximum stacksize for task 349: unlimited
  | Maximum stacksize for task 350: unlimited
  | Maximum stacksize for task 351: unlimited
  | Maximum stacksize for task 352: unlimited
  | Maximum stacksize for task 353: unlimited
  | Maximum stacksize for task 354: unlimited
  | Maximum stacksize for task 355: unlimited
  | Maximum stacksize for task 356: unlimited
  | Maximum stacksize for task 357: unlimited
  | Maximum stacksize for task 358: unlimited
  | Maximum stacksize for task 359: unlimited
  | Maximum stacksize for task 360: unlimited
  | Maximum stacksize for task 361: unlimited
  | Maximum stacksize for task 362: unlimited
  | Maximum stacksize for task 363: unlimited
  | Maximum stacksize for task 364: unlimited
  | Maximum stacksize for task 365: unlimited
  | Maximum stacksize for task 366: unlimited
  | Maximum stacksize for task 367: unlimited
  | Maximum stacksize for task 368: unlimited
  | Maximum stacksize for task 369: unlimited
  | Maximum stacksize for task 370: unlimited
  | Maximum stacksize for task 371: unlimited
  | Maximum stacksize for task 372: unlimited
  | Maximum stacksize for task 373: unlimited
  | Maximum stacksize for task 374: unlimited
  | Maximum stacksize for task 375: unlimited
  | Maximum stacksize for task 376: unlimited
  | Maximum stacksize for task 377: unlimited
  | Maximum stacksize for task 378: unlimited
  | Maximum stacksize for task 379: unlimited
  | Maximum stacksize for task 380: unlimited
  | Maximum stacksize for task 381: unlimited
  | Maximum stacksize for task 382: unlimited
  | Maximum stacksize for task 383: unlimited
  | Maximum stacksize for task 384: unlimited
  | Maximum stacksize for task 385: unlimited
  | Maximum stacksize for task 386: unlimited
  | Maximum stacksize for task 387: unlimited
  | Maximum stacksize for task 388: unlimited
  | Maximum stacksize for task 389: unlimited
  | Maximum stacksize for task 390: unlimited
  | Maximum stacksize for task 391: unlimited
  | Maximum stacksize for task 392: unlimited
  | Maximum stacksize for task 393: unlimited
  | Maximum stacksize for task 394: unlimited
  | Maximum stacksize for task 395: unlimited
  | Maximum stacksize for task 396: unlimited
  | Maximum stacksize for task 397: unlimited
  | Maximum stacksize for task 398: unlimited
  | Maximum stacksize for task 399: unlimited
  | Maximum stacksize for task 400: unlimited
  | Maximum stacksize for task 401: unlimited
  | Maximum stacksize for task 402: unlimited
  | Maximum stacksize for task 403: unlimited
  | Maximum stacksize for task 404: unlimited
  | Maximum stacksize for task 405: unlimited
  | Maximum stacksize for task 406: unlimited
  | Maximum stacksize for task 407: unlimited
  | Maximum stacksize for task 408: unlimited
  | Maximum stacksize for task 409: unlimited
  | Maximum stacksize for task 410: unlimited
  | Maximum stacksize for task 411: unlimited
  | Maximum stacksize for task 412: unlimited
  | Maximum stacksize for task 413: unlimited
  | Maximum stacksize for task 414: unlimited
  | Maximum stacksize for task 415: unlimited
  | Maximum stacksize for task 416: unlimited
  | Maximum stacksize for task 417: unlimited
  | Maximum stacksize for task 418: unlimited
  | Maximum stacksize for task 419: unlimited
  | Maximum stacksize for task 420: unlimited
  | Maximum stacksize for task 421: unlimited
  | Maximum stacksize for task 422: unlimited
  | Maximum stacksize for task 423: unlimited
  | Maximum stacksize for task 424: unlimited
  | Maximum stacksize for task 425: unlimited
  | Maximum stacksize for task 426: unlimited
  | Maximum stacksize for task 427: unlimited
  | Maximum stacksize for task 428: unlimited
  | Maximum stacksize for task 429: unlimited
  | Maximum stacksize for task 430: unlimited
  | Maximum stacksize for task 431: unlimited
  | Maximum stacksize for task 432: unlimited
  | Maximum stacksize for task 433: unlimited
  | Maximum stacksize for task 434: unlimited
  | Maximum stacksize for task 435: unlimited
  | Maximum stacksize for task 436: unlimited
  | Maximum stacksize for task 437: unlimited
  | Maximum stacksize for task 438: unlimited
  | Maximum stacksize for task 439: unlimited
  | Maximum stacksize for task 440: unlimited
  | Maximum stacksize for task 441: unlimited
  | Maximum stacksize for task 442: unlimited
  | Maximum stacksize for task 443: unlimited
  | Maximum stacksize for task 444: unlimited
  | Maximum stacksize for task 445: unlimited
  | Maximum stacksize for task 446: unlimited
  | Maximum stacksize for task 447: unlimited
  | Maximum stacksize for task 448: unlimited
  | Maximum stacksize for task 449: unlimited
  | Maximum stacksize for task 450: unlimited
  | Maximum stacksize for task 451: unlimited
  | Maximum stacksize for task 452: unlimited
  | Maximum stacksize for task 453: unlimited
  | Maximum stacksize for task 454: unlimited
  | Maximum stacksize for task 455: unlimited
  | Maximum stacksize for task 456: unlimited
  | Maximum stacksize for task 457: unlimited
  | Maximum stacksize for task 458: unlimited
  | Maximum stacksize for task 459: unlimited
  | Maximum stacksize for task 460: unlimited
  | Maximum stacksize for task 461: unlimited
  | Maximum stacksize for task 462: unlimited
  | Maximum stacksize for task 463: unlimited
  | Maximum stacksize for task 464: unlimited
  | Maximum stacksize for task 465: unlimited
  | Maximum stacksize for task 466: unlimited
  | Maximum stacksize for task 467: unlimited
  | Maximum stacksize for task 468: unlimited
  | Maximum stacksize for task 469: unlimited
  | Maximum stacksize for task 470: unlimited
  | Maximum stacksize for task 471: unlimited
  | Maximum stacksize for task 472: unlimited
  | Maximum stacksize for task 473: unlimited
  | Maximum stacksize for task 474: unlimited
  | Maximum stacksize for task 475: unlimited
  | Maximum stacksize for task 476: unlimited
  | Maximum stacksize for task 477: unlimited
  | Maximum stacksize for task 478: unlimited
  | Maximum stacksize for task 479: unlimited
  | Maximum stacksize for task 480: unlimited
  | Maximum stacksize for task 481: unlimited
  | Maximum stacksize for task 482: unlimited
  | Maximum stacksize for task 483: unlimited
  | Maximum stacksize for task 484: unlimited
  | Maximum stacksize for task 485: unlimited
  | Maximum stacksize for task 486: unlimited
  | Maximum stacksize for task 487: unlimited
  | Maximum stacksize for task 488: unlimited
  | Maximum stacksize for task 489: unlimited
  | Maximum stacksize for task 490: unlimited
  | Maximum stacksize for task 491: unlimited
  | Maximum stacksize for task 492: unlimited
  | Maximum stacksize for task 493: unlimited
  | Maximum stacksize for task 494: unlimited
  | Maximum stacksize for task 495: unlimited
  | Maximum stacksize for task 496: unlimited
  | Maximum stacksize for task 497: unlimited
  | Maximum stacksize for task 498: unlimited
  | Maximum stacksize for task 499: unlimited
  | Maximum stacksize for task 500: unlimited
  | Maximum stacksize for task 501: unlimited
  | Maximum stacksize for task 502: unlimited
  | Maximum stacksize for task 503: unlimited
  | Maximum stacksize for task 504: unlimited
  | Maximum stacksize for task 505: unlimited
  | Maximum stacksize for task 506: unlimited
  | Maximum stacksize for task 507: unlimited
  | Maximum stacksize for task 508: unlimited
  | Maximum stacksize for task 509: unlimited
  | Maximum stacksize for task 510: unlimited
  | Maximum stacksize for task 511: unlimited
  | Current stacksize for task 0: unlimited
  | Current stacksize for task 1: unlimited
  | Current stacksize for task 2: unlimited
  | Current stacksize for task 3: unlimited
  | Current stacksize for task 4: unlimited
  | Current stacksize for task 5: unlimited
  | Current stacksize for task 6: unlimited
  | Current stacksize for task 7: unlimited
  | Current stacksize for task 8: unlimited
  | Current stacksize for task 9: unlimited
  | Current stacksize for task 10: unlimited
  | Current stacksize for task 11: unlimited
  | Current stacksize for task 12: unlimited
  | Current stacksize for task 13: unlimited
  | Current stacksize for task 14: unlimited
  | Current stacksize for task 15: unlimited
  | Current stacksize for task 16: unlimited
  | Current stacksize for task 17: unlimited
  | Current stacksize for task 18: unlimited
  | Current stacksize for task 19: unlimited
  | Current stacksize for task 20: unlimited
  | Current stacksize for task 21: unlimited
  | Current stacksize for task 22: unlimited
  | Current stacksize for task 23: unlimited
  | Current stacksize for task 24: unlimited
  | Current stacksize for task 25: unlimited
  | Current stacksize for task 26: unlimited
  | Current stacksize for task 27: unlimited
  | Current stacksize for task 28: unlimited
  | Current stacksize for task 29: unlimited
  | Current stacksize for task 30: unlimited
  | Current stacksize for task 31: unlimited
  | Current stacksize for task 32: unlimited
  | Current stacksize for task 33: unlimited
  | Current stacksize for task 34: unlimited
  | Current stacksize for task 35: unlimited
  | Current stacksize for task 36: unlimited
  | Current stacksize for task 37: unlimited
  | Current stacksize for task 38: unlimited
  | Current stacksize for task 39: unlimited
  | Current stacksize for task 40: unlimited
  | Current stacksize for task 41: unlimited
  | Current stacksize for task 42: unlimited
  | Current stacksize for task 43: unlimited
  | Current stacksize for task 44: unlimited
  | Current stacksize for task 45: unlimited
  | Current stacksize for task 46: unlimited
  | Current stacksize for task 47: unlimited
  | Current stacksize for task 48: unlimited
  | Current stacksize for task 49: unlimited
  | Current stacksize for task 50: unlimited
  | Current stacksize for task 51: unlimited
  | Current stacksize for task 52: unlimited
  | Current stacksize for task 53: unlimited
  | Current stacksize for task 54: unlimited
  | Current stacksize for task 55: unlimited
  | Current stacksize for task 56: unlimited
  | Current stacksize for task 57: unlimited
  | Current stacksize for task 58: unlimited
  | Current stacksize for task 59: unlimited
  | Current stacksize for task 60: unlimited
  | Current stacksize for task 61: unlimited
  | Current stacksize for task 62: unlimited
  | Current stacksize for task 63: unlimited
  | Current stacksize for task 64: unlimited
  | Current stacksize for task 65: unlimited
  | Current stacksize for task 66: unlimited
  | Current stacksize for task 67: unlimited
  | Current stacksize for task 68: unlimited
  | Current stacksize for task 69: unlimited
  | Current stacksize for task 70: unlimited
  | Current stacksize for task 71: unlimited
  | Current stacksize for task 72: unlimited
  | Current stacksize for task 73: unlimited
  | Current stacksize for task 74: unlimited
  | Current stacksize for task 75: unlimited
  | Current stacksize for task 76: unlimited
  | Current stacksize for task 77: unlimited
  | Current stacksize for task 78: unlimited
  | Current stacksize for task 79: unlimited
  | Current stacksize for task 80: unlimited
  | Current stacksize for task 81: unlimited
  | Current stacksize for task 82: unlimited
  | Current stacksize for task 83: unlimited
  | Current stacksize for task 84: unlimited
  | Current stacksize for task 85: unlimited
  | Current stacksize for task 86: unlimited
  | Current stacksize for task 87: unlimited
  | Current stacksize for task 88: unlimited
  | Current stacksize for task 89: unlimited
  | Current stacksize for task 90: unlimited
  | Current stacksize for task 91: unlimited
  | Current stacksize for task 92: unlimited
  | Current stacksize for task 93: unlimited
  | Current stacksize for task 94: unlimited
  | Current stacksize for task 95: unlimited
  | Current stacksize for task 96: unlimited
  | Current stacksize for task 97: unlimited
  | Current stacksize for task 98: unlimited
  | Current stacksize for task 99: unlimited
  | Current stacksize for task 100: unlimited
  | Current stacksize for task 101: unlimited
  | Current stacksize for task 102: unlimited
  | Current stacksize for task 103: unlimited
  | Current stacksize for task 104: unlimited
  | Current stacksize for task 105: unlimited
  | Current stacksize for task 106: unlimited
  | Current stacksize for task 107: unlimited
  | Current stacksize for task 108: unlimited
  | Current stacksize for task 109: unlimited
  | Current stacksize for task 110: unlimited
  | Current stacksize for task 111: unlimited
  | Current stacksize for task 112: unlimited
  | Current stacksize for task 113: unlimited
  | Current stacksize for task 114: unlimited
  | Current stacksize for task 115: unlimited
  | Current stacksize for task 116: unlimited
  | Current stacksize for task 117: unlimited
  | Current stacksize for task 118: unlimited
  | Current stacksize for task 119: unlimited
  | Current stacksize for task 120: unlimited
  | Current stacksize for task 121: unlimited
  | Current stacksize for task 122: unlimited
  | Current stacksize for task 123: unlimited
  | Current stacksize for task 124: unlimited
  | Current stacksize for task 125: unlimited
  | Current stacksize for task 126: unlimited
  | Current stacksize for task 127: unlimited
  | Current stacksize for task 128: unlimited
  | Current stacksize for task 129: unlimited
  | Current stacksize for task 130: unlimited
  | Current stacksize for task 131: unlimited
  | Current stacksize for task 132: unlimited
  | Current stacksize for task 133: unlimited
  | Current stacksize for task 134: unlimited
  | Current stacksize for task 135: unlimited
  | Current stacksize for task 136: unlimited
  | Current stacksize for task 137: unlimited
  | Current stacksize for task 138: unlimited
  | Current stacksize for task 139: unlimited
  | Current stacksize for task 140: unlimited
  | Current stacksize for task 141: unlimited
  | Current stacksize for task 142: unlimited
  | Current stacksize for task 143: unlimited
  | Current stacksize for task 144: unlimited
  | Current stacksize for task 145: unlimited
  | Current stacksize for task 146: unlimited
  | Current stacksize for task 147: unlimited
  | Current stacksize for task 148: unlimited
  | Current stacksize for task 149: unlimited
  | Current stacksize for task 150: unlimited
  | Current stacksize for task 151: unlimited
  | Current stacksize for task 152: unlimited
  | Current stacksize for task 153: unlimited
  | Current stacksize for task 154: unlimited
  | Current stacksize for task 155: unlimited
  | Current stacksize for task 156: unlimited
  | Current stacksize for task 157: unlimited
  | Current stacksize for task 158: unlimited
  | Current stacksize for task 159: unlimited
  | Current stacksize for task 160: unlimited
  | Current stacksize for task 161: unlimited
  | Current stacksize for task 162: unlimited
  | Current stacksize for task 163: unlimited
  | Current stacksize for task 164: unlimited
  | Current stacksize for task 165: unlimited
  | Current stacksize for task 166: unlimited
  | Current stacksize for task 167: unlimited
  | Current stacksize for task 168: unlimited
  | Current stacksize for task 169: unlimited
  | Current stacksize for task 170: unlimited
  | Current stacksize for task 171: unlimited
  | Current stacksize for task 172: unlimited
  | Current stacksize for task 173: unlimited
  | Current stacksize for task 174: unlimited
  | Current stacksize for task 175: unlimited
  | Current stacksize for task 176: unlimited
  | Current stacksize for task 177: unlimited
  | Current stacksize for task 178: unlimited
  | Current stacksize for task 179: unlimited
  | Current stacksize for task 180: unlimited
  | Current stacksize for task 181: unlimited
  | Current stacksize for task 182: unlimited
  | Current stacksize for task 183: unlimited
  | Current stacksize for task 184: unlimited
  | Current stacksize for task 185: unlimited
  | Current stacksize for task 186: unlimited
  | Current stacksize for task 187: unlimited
  | Current stacksize for task 188: unlimited
  | Current stacksize for task 189: unlimited
  | Current stacksize for task 190: unlimited
  | Current stacksize for task 191: unlimited
  | Current stacksize for task 192: unlimited
  | Current stacksize for task 193: unlimited
  | Current stacksize for task 194: unlimited
  | Current stacksize for task 195: unlimited
  | Current stacksize for task 196: unlimited
  | Current stacksize for task 197: unlimited
  | Current stacksize for task 198: unlimited
  | Current stacksize for task 199: unlimited
  | Current stacksize for task 200: unlimited
  | Current stacksize for task 201: unlimited
  | Current stacksize for task 202: unlimited
  | Current stacksize for task 203: unlimited
  | Current stacksize for task 204: unlimited
  | Current stacksize for task 205: unlimited
  | Current stacksize for task 206: unlimited
  | Current stacksize for task 207: unlimited
  | Current stacksize for task 208: unlimited
  | Current stacksize for task 209: unlimited
  | Current stacksize for task 210: unlimited
  | Current stacksize for task 211: unlimited
  | Current stacksize for task 212: unlimited
  | Current stacksize for task 213: unlimited
  | Current stacksize for task 214: unlimited
  | Current stacksize for task 215: unlimited
  | Current stacksize for task 216: unlimited
  | Current stacksize for task 217: unlimited
  | Current stacksize for task 218: unlimited
  | Current stacksize for task 219: unlimited
  | Current stacksize for task 220: unlimited
  | Current stacksize for task 221: unlimited
  | Current stacksize for task 222: unlimited
  | Current stacksize for task 223: unlimited
  | Current stacksize for task 224: unlimited
  | Current stacksize for task 225: unlimited
  | Current stacksize for task 226: unlimited
  | Current stacksize for task 227: unlimited
  | Current stacksize for task 228: unlimited
  | Current stacksize for task 229: unlimited
  | Current stacksize for task 230: unlimited
  | Current stacksize for task 231: unlimited
  | Current stacksize for task 232: unlimited
  | Current stacksize for task 233: unlimited
  | Current stacksize for task 234: unlimited
  | Current stacksize for task 235: unlimited
  | Current stacksize for task 236: unlimited
  | Current stacksize for task 237: unlimited
  | Current stacksize for task 238: unlimited
  | Current stacksize for task 239: unlimited
  | Current stacksize for task 240: unlimited
  | Current stacksize for task 241: unlimited
  | Current stacksize for task 242: unlimited
  | Current stacksize for task 243: unlimited
  | Current stacksize for task 244: unlimited
  | Current stacksize for task 245: unlimited
  | Current stacksize for task 246: unlimited
  | Current stacksize for task 247: unlimited
  | Current stacksize for task 248: unlimited
  | Current stacksize for task 249: unlimited
  | Current stacksize for task 250: unlimited
  | Current stacksize for task 251: unlimited
  | Current stacksize for task 252: unlimited
  | Current stacksize for task 253: unlimited
  | Current stacksize for task 254: unlimited
  | Current stacksize for task 255: unlimited
  | Current stacksize for task 256: unlimited
  | Current stacksize for task 257: unlimited
  | Current stacksize for task 258: unlimited
  | Current stacksize for task 259: unlimited
  | Current stacksize for task 260: unlimited
  | Current stacksize for task 261: unlimited
  | Current stacksize for task 262: unlimited
  | Current stacksize for task 263: unlimited
  | Current stacksize for task 264: unlimited
  | Current stacksize for task 265: unlimited
  | Current stacksize for task 266: unlimited
  | Current stacksize for task 267: unlimited
  | Current stacksize for task 268: unlimited
  | Current stacksize for task 269: unlimited
  | Current stacksize for task 270: unlimited
  | Current stacksize for task 271: unlimited
  | Current stacksize for task 272: unlimited
  | Current stacksize for task 273: unlimited
  | Current stacksize for task 274: unlimited
  | Current stacksize for task 275: unlimited
  | Current stacksize for task 276: unlimited
  | Current stacksize for task 277: unlimited
  | Current stacksize for task 278: unlimited
  | Current stacksize for task 279: unlimited
  | Current stacksize for task 280: unlimited
  | Current stacksize for task 281: unlimited
  | Current stacksize for task 282: unlimited
  | Current stacksize for task 283: unlimited
  | Current stacksize for task 284: unlimited
  | Current stacksize for task 285: unlimited
  | Current stacksize for task 286: unlimited
  | Current stacksize for task 287: unlimited
  | Current stacksize for task 288: unlimited
  | Current stacksize for task 289: unlimited
  | Current stacksize for task 290: unlimited
  | Current stacksize for task 291: unlimited
  | Current stacksize for task 292: unlimited
  | Current stacksize for task 293: unlimited
  | Current stacksize for task 294: unlimited
  | Current stacksize for task 295: unlimited
  | Current stacksize for task 296: unlimited
  | Current stacksize for task 297: unlimited
  | Current stacksize for task 298: unlimited
  | Current stacksize for task 299: unlimited
  | Current stacksize for task 300: unlimited
  | Current stacksize for task 301: unlimited
  | Current stacksize for task 302: unlimited
  | Current stacksize for task 303: unlimited
  | Current stacksize for task 304: unlimited
  | Current stacksize for task 305: unlimited
  | Current stacksize for task 306: unlimited
  | Current stacksize for task 307: unlimited
  | Current stacksize for task 308: unlimited
  | Current stacksize for task 309: unlimited
  | Current stacksize for task 310: unlimited
  | Current stacksize for task 311: unlimited
  | Current stacksize for task 312: unlimited
  | Current stacksize for task 313: unlimited
  | Current stacksize for task 314: unlimited
  | Current stacksize for task 315: unlimited
  | Current stacksize for task 316: unlimited
  | Current stacksize for task 317: unlimited
  | Current stacksize for task 318: unlimited
  | Current stacksize for task 319: unlimited
  | Current stacksize for task 320: unlimited
  | Current stacksize for task 321: unlimited
  | Current stacksize for task 322: unlimited
  | Current stacksize for task 323: unlimited
  | Current stacksize for task 324: unlimited
  | Current stacksize for task 325: unlimited
  | Current stacksize for task 326: unlimited
  | Current stacksize for task 327: unlimited
  | Current stacksize for task 328: unlimited
  | Current stacksize for task 329: unlimited
  | Current stacksize for task 330: unlimited
  | Current stacksize for task 331: unlimited
  | Current stacksize for task 332: unlimited
  | Current stacksize for task 333: unlimited
  | Current stacksize for task 334: unlimited
[...]
      66    0.0000       91.1978       -4.1951      -16.4711       -3.5892       94.3827
      67    0.0000       95.0697       -3.9209      -16.0214       -3.0766       98.2546
      68    0.0000       95.9103       -5.2966      -18.3389       -5.2810       99.0951
      69    0.0000       97.0936       -4.8537      -17.2279       -3.6632      100.2784
      70    0.0000       97.5546       -4.9677      -17.8590       -4.5367      100.7395
      71    0.0000       99.9100       -4.5932      -17.4698       -4.8827      103.0949
      72    0.0000       99.9463       -4.5499      -17.1904       -4.2632      103.1311
      73    0.0000      100.9890       -4.6667      -18.0089       -5.2725      104.1739
      74    0.0000      102.9683       -4.4304      -17.4151       -5.3325      106.1532
      75    0.0000      103.6448       -3.6345      -16.3296       -4.2892      106.8297
      76    0.0000      103.8772       -5.3760      -19.1541       -5.3603      107.0621
      77    0.0000      106.0831       -4.7085      -17.8802       -3.9866      109.2679
      78    0.0000      107.7210       -4.3323      -17.1239       -4.7522      110.9058
      79    0.0000      108.1665       -3.5313      -16.6175       -4.6876      111.3513
      80    0.0000      109.3825       -3.6332      -16.2216       -3.5812      112.5673
      81    0.0000      111.3519       -2.5724      -14.6113       -2.3412      114.5368
      82    0.0000      112.0670       -3.5016      -16.0670       -3.5468      115.2519
      83    0.0000      113.4740       -5.0814      -18.3375       -4.2769      116.6588
      84    0.0000      118.0554       -4.5111      -18.2579       -4.3716      121.2403
      85    0.0000      118.3821       -4.0460      -17.4677       -4.2729      121.5669
      86    0.0000      120.9718       -5.2222      -19.7397       -4.5827      124.1567
      87    0.0000      122.4410       -5.7048      -21.3342       -6.2815      125.6259
      88    0.0000      122.6170       -4.5527      -18.7579       -4.4056      125.8019
      89    0.0000      126.8932       -7.2248      -24.1049       -7.6013      130.0781
      90    0.0000      127.2381       -6.7030      -22.5018       -5.5043      130.4230
      91    0.0000      127.9973       -7.3781      -24.4924       -7.0689      131.1821
      92    0.0000      130.5568       -3.8458      -17.4617       -2.5216      133.7416
      93    0.0000      135.7982       -3.4870      -16.9565       -3.1194      138.9831
      94    0.0000      137.4295       -6.3212      -22.5095       -6.1297      140.6144
      95    0.0000      137.5899       -5.4785      -21.5240       -6.9937      140.7748
      96    0.0000      140.6657       -5.7932      -22.3331       -5.2109      143.8505
      97    0.0000      152.7740       -4.8460      -20.5675       -2.6823      155.9589
      98    0.0000      192.6024       -5.9811      -24.5279       -2.1551      195.7873
      99    0.0000      195.5828       -6.3758      -25.6310       -2.3899      198.7676
     100    0.0000      212.6252       -2.5708      -18.8622       -2.1197      215.8101
     101    0.0000      216.0664       -2.7170      -19.2290       -2.2196      219.2512
     102    0.0000      221.4675       -2.7142      -19.3622       -2.3939      224.6523
     103    0.0000      221.6760       -2.5199      -18.9040       -2.7542      224.8609
     104    0.0000      223.1260       -2.6918      -19.3910       -2.2813      226.3109
     105    0.0000      224.1257       -2.5021      -18.9873       -2.7248      227.3106
     106    0.0000      224.3541       -3.0990      -19.9653       -2.9590      227.5390
     107    0.0000      228.4217       -2.8000      -19.7117       -2.1328      231.6066
     108    0.0000      231.0849       -2.9501      -19.9242       -5.1322      234.2698
     109    0.0000      235.6849       -2.3622      -18.8973       -2.4216      238.8697
     110    0.0000      235.7021       -2.3638      -18.9007       -2.6074      238.8869
     111    0.0000      235.7792       -2.3771      -18.9314       -2.4284      238.9640
     112    0.0000      235.7855       -2.3748      -18.9276       -2.6391      238.9703
     113    0.0000      237.4879       -2.4018      -19.0715       -2.7680      240.6727
     114    0.0000      237.9510       -2.4692      -19.1513       -2.7629      241.1359
     115    0.0000      240.1564       -2.3200      -18.9398       -2.3246      243.3412
     116    0.0000      243.1943       -2.4964      -19.3817       -3.0549      246.3791
     117    0.0000      251.3323       -2.7089      -20.0591       -2.0223      254.5171
     118    0.0000      254.6800       -2.3719      -19.4863       -1.2146      257.8649
     119    0.0000      257.1284       -2.6844      -20.1678       -2.1439      260.3133
     120    0.0000      270.9451       -2.5277      -20.0341       -2.5678      274.1300
     121    0.0000      276.6067       -2.7408      -20.7347       -2.5315      279.7916
     122    0.0000      276.6297       -2.7553      -20.7905       -3.4921      279.8145
     123    0.0000      277.7044       -2.5373      -20.4880       -2.1340      280.8892
     124    0.0000      286.8131       -3.2411      -22.2674       -5.0628      289.9980
     125    0.0000      288.7582       -3.3619      -22.7135       -4.4014      291.9431
     126    0.0000      288.7586       -3.5138      -23.0857       -4.8511      291.9434
     127    0.0000      290.3849       -3.2283      -22.1609       -1.3484      293.5697
     128    0.0000      291.4012       -3.6054      -23.3088       -6.9448      294.5861
     129    0.0000      291.5817       -3.5396      -23.1183       -4.3586      294.7666
     130    0.0000      291.6351       -3.2168      -22.2098       -4.0937      294.8200
     131    0.0000      292.2361       -3.5171      -23.1272       -8.4312      295.4210
     132    0.0000      292.5725       -3.5006      -23.0832       -2.3768      295.7574
     133    0.0000      296.5720       -3.5782      -23.3137       -7.5061      299.7569
     134    0.0000      296.7494       -3.1849      -22.4538       -3.1712      299.9342
     135    0.0000      300.8886       -3.5844      -23.2863       -5.3503      304.0734
     136    0.0000      302.4775       -3.2067      -22.6447       -5.0333      305.6623
     137    0.0000      304.3757       -3.2621      -22.8259       -4.3766      307.5606
     138    0.0000      304.7311       -3.1034      -22.4420       -6.1509      307.9159
     139    0.0000      304.8760       -3.4128      -23.0142       -4.4571      308.0609
     140    0.0000      305.7697       -3.2543      -22.8339       -4.7494      308.9546
     141    0.0000      306.4880       -3.3754      -23.2424       -5.7985      309.6728
     142    0.0000      306.7933       -3.4328      -23.1003       -6.1105      309.9781
     143    0.0000      307.8479       -5.9795      -26.2298       -4.9912      311.0328
     144    0.0000      310.2393       -3.5130      -23.5206       -6.9821      313.4242
     145    0.0000      312.1889       -3.8112      -24.0309       -6.3265      315.3737
     146    0.0000      313.1147       -3.7308      -24.0321       -6.2550      316.2995
     147    0.0000      315.1762       -4.0876      -24.7890       -7.5637      318.3610
     148    0.0000      317.1259       -4.6837      -25.6127       -6.5553      320.3108
     149    0.0000      317.3569       -4.0286      -24.7347       -8.2896      320.5417
     150    0.0000      317.9429       -4.1466      -24.8980       -6.0307      321.1278
     151    0.0000      318.2231       -4.2995      -25.2590       -7.3089      321.4080
     152    0.0000      319.8290       -4.1572      -25.0376       -6.6670      323.0138
     153    0.0000      322.1352       -4.0746      -24.9232       -7.3326      325.3200
     154    0.0000      322.3532       -4.2250      -25.0988       -7.2199      325.5380
     155    0.0000      327.4521       -3.5494      -23.7627       -5.1943      330.6370
     156    0.0000      329.1227       -4.7613      -25.1350       -6.3538      332.3076
     157    0.0000      354.1702       -3.2761      -23.6663       -5.4526      357.3551
     158    0.0000      357.5373       -4.9788      -26.0088       -6.0769      360.7222
     159    0.0000      358.8533       -3.6343      -24.2069       -5.0085      362.0382
     160    0.0000      361.6854       -3.1963      -23.7304       -5.2302      364.8703
     161    0.0000      364.3356       -8.9383      -30.8684       -7.1153      367.5205
     162    0.0000      368.4392       -9.0112      -30.9187       -7.6300      371.6241
     163    0.0000      383.5160       -7.3092      -29.0201       -7.5807      386.7009
     164    0.0000      402.8034       -4.0132      -25.9508       -1.8771      405.9883
     165    0.0000      404.6402       -4.2201      -26.5086       -1.5554      407.8250
     166    0.0000     1274.3841      -18.2682      -62.3122       -2.9047     1277.5689
     167    0.0000     1287.6599      -18.1569      -62.2516       -3.2512     1290.8447
     168    0.0000     1293.4432      -18.0529      -62.1668      -10.7493     1296.6281
     169    0.0000     6854.4496      -20.8167     -126.4172       -6.2349     6857.6344
     170    0.0000     6869.6822      -20.7733     -126.3834       -6.1668     6872.8670
     171    0.0000     6876.6822      -20.7388     -126.3489       -6.0521     6879.8671
----------------------------------------------------------------------------------------

   DFT/Hartree-Fock HOMO level (eV):    -7.8900   -7.8900

   Quasiparticle HOMO level (eV):      -12.6665  -12.6665
----------------------------------------------------------------------------------------

 ************************************************************
  ev-scGW0 converged
 ************************************************************
  
  Start calculating the spectral function

------------------------------------------------------------------------------------------------------

          | Total time for transforming the 3-center integrals :        0.161 s
          | Total time for calculating the exchange-correlation
                                  energy matrix elements   :        0.025 s
          | Total time for calculating polarisability     
                        for imaginary frequencies          :      101.478 s
          | Total time for calculating self energy 
                        on imaginary frequency axis        :      190.787 s
          | Total time for calculating the quasiparticle 
                  energies with analytic continuation      :        0.026 s
          | Total time for calculating the quasiparticle 
                  energies with contour deformation        :      115.367 s

------------------------------------------------------------------------------
  Final output of selected total energy values:

  The following output summarizes some interesting total energy values
  at the end of a run (AFTER all relaxation, molecular dynamics, etc.).

  | Total energy of the DFT / Hartree-Fock s.c.f. calculation      :          -6130.156047873 eV
  | Final zero-broadening corrected energy (caution - metals only) :          -6130.156047873 eV
  | For reference only, the value of 1 Hartree used in FHI-aims is :             27.211384500 eV

  Before relying on these values, please be sure to understand exactly which
  total energy value is referred to by a given number. Different objects may
  all carry the same name 'total energy'. Definitions:

  Total energy of the DFT / Hartree-Fock s.c.f. calculation:
  | Note that this energy does not include ANY quantities calculated after the
  | s.c.f. cycle, in particular not ANY RPA, MP2, etc. many-body perturbation terms.

  Final zero-broadening corrected energy:
  | For metallic systems only, a broadening of the occupation numbers at the Fermi
  | level can be extrapolated back to zero broadening by an electron-gas inspired
  | formula. For all systems that are not real metals, this value can be
  | meaningless and should be avoided.

------------------------------------------------------------------------------
  Methods described in the following list of references were used in this FHI-aims run.
  If you publish the results, please make sure to cite these reference if they apply.
  FHI-aims is an academic code, and for our developers (often, Ph.D. students
  and postdocs), scientific credit in the community is essential.
  Thank you for helping us!

  For any use of FHI-aims, please cite:

    Volker Blum, Ralf Gehrke, Felix Hanke, Paula Havu, Ville Havu,
    Xinguo Ren, Karsten Reuter, and Matthias Scheffler
    'Ab initio molecular simulations with numeric atom-centered orbitals'
    Computer Physics Communications 180, 2175-2196 (2009)
    http://doi.org/10.1016/j.cpc.2009.06.022


  For Hartree-Fock, hybrid functionals, or many-body perturbation theory used in your run, please cite:

    Xinguo Ren, Patrick Rinke, Volker Blum, Juergen Wieferink, Alex Tkatchenko,
    Andrea Sanfilippo, Karsten Reuter, and Matthias Scheffler,
    'Resolution-of-identity approach to Hartree-Fock, hybrid density functionals,
    RPA, MP2, and GW with numeric atom-centered orbital basis functions'
    New Journal of Physics 14, 053020 (2012).
    http://doi.org/10.1088/1367-2630/14/5/053020


  The ELSI infrastructure was used in your run to solve the Kohn-Sham electronic structure.
  Please check out http://elsi-interchange.org to learn more.
  If scalability is important for your project, please acknowledge ELSI by citing:

    V. W-z. Yu, F. Corsetti, A. Garcia, W. P. Huhn, M. Jacquelin, W. Jia,
    B. Lange, L. Lin, J. Lu, W. Mi, A. Seifitokaldani, A. Vazquez-Mayagoitia,
    C. Yang, H. Yang, and V. Blum
    'ELSI: A unified software interface for Kohn-Sham electronic structure solvers'
    Computer Physics Communications 222, 267-285 (2018).
    http://doi.org/10.1016/j.cpc.2017.09.007


  For the real-space grid partitioning and parallelization used in this calculation, please cite:

    Ville Havu, Volker Blum, Paula Havu, and Matthias Scheffler,
    'Efficient O(N) integration for all-electron electronic structure calculation'
    'using numerically tabulated basis functions'
    Journal of Computational Physics 228, 8367-8379 (2009).
    http://doi.org/10.1016/j.jcp.2009.08.008

  Of course, there are many other important community references, e.g., those cited in the
  above references. Our list is limited to references that describe implementations in the
  FHI-aims code. The reason is purely practical (length of this list) - please credit others as well.

 * A warning was issued further up regarding the accuracy of onsite integrals.
   An integral with a negative eigenvalue was among the flagged integrals.
   In most standard situations, this warning is probably harmless.
   If needed, this can be verified by adjusting the radial_multiplier flag.

 * Warning - angular integration grids had to be adjusted for use with RI_method 'V'.
 * Background: You are using an electronic structure method that requires RI_method 'V'
 * for the resolution of identity of the Coulomb operator. (See Ren et al.,
 * New J. Phys 2012 for details.) This method requires three-center integrations
 * to be carried out on FHI-aims' normal angular and radial integration grids.
 * (See FHI-aims CPC Blum et al. 2009, p. 2183 for grid details and references.)
 * One of the angular grids specified in your control.in file was not large
 * enough for the maximal angular momenta of orbital and product basis functions
 * for its species.
 * This can lead to atomic total energy errors which cancel in energy differences.
 * Effective Sep 22, 2014, we have changed the default behavior of the code to
 * simply 'upgrade' the angular grids internally to a safe setting in this case.
 * Please be sure to NOT mix total energies from before and after the change.

------------------------------------------------------------
          Leaving FHI-aims.
          Date     :  20240515, Time     :  074923.390

          Computational steps:
          | Number of self-consistency cycles          :           13
          | Number of SCF (re)initializations          :            1

          Detailed time accounting                     :  max(cpu_time)    wall_clock(cpu1)
          | Total time                                  :     9199.406 s        9237.950 s
          | Preparation time                            :        0.111 s           0.112 s
          | Boundary condition initalization            :        0.002 s           0.001 s
          | Grid partitioning                           :        0.209 s           0.197 s
          | Preloading free-atom quantities on grid     :        0.011 s           0.025 s
          | Free-atom superposition energy              :        0.002 s           0.001 s
          | Total time for integrations                 :        0.228 s           0.230 s
          | Product basis setup: Total time             :        0.000 s           0.000 s
          | Product basis: | 3-center integrations     :(       1.918 s)  (       1.926 s)
          | Product basis: | 2-center integrations     :(       0.070 s)  (       0.070 s)
          | Product basis: | 2-center linear algebra   :(       0.103 s)  (       0.104 s)
          | Product basis: | 3-center x 2-center       :(       0.067 s)  (       0.067 s)
          | Transforming ovlp_3fn to ovlp_3KS           :        0.161 s           0.163 s
          | Screened Coulomb matrix W_mn(iw)            :      289.984 s         291.301 s
          | Polarisability matrix Pi_PQ(iw)             :      101.478 s         101.478 s
          | Total time for GW calculation               :     9190.003 s        9227.763 s
          | GW self-energy (analytic cont.)             :      741.973 s         744.903 s
          | Contour def: | Solving qp equations         :      115.367 s         115.775 s
          | Contour def: | GW self-energy               :     8438.286 s        7992.114 s
          | Contour def: | Scr Coulomb matrix W_mn(w)   :     8331.889 s        7879.329 s
          | Contour def: | CD-WAC W_mn(w) and Pade      :        0.000 s           0.000 s
          | Contour def: | Scr aux Coulomb mat W_PQ(w)  :     7462.163 s        7011.083 s
          | Contour def: | Polarisability Pi_PQ(w)      :     4357.051 s        4154.452 s
          | Contour def: | Spectral function CD         :     4659.567 s        4677.754 s
          | Total time for solution of K.-S. equations  :        0.649 s           0.656 s
          | Total time for density update               :        0.117 s           0.120 s
          | Total time for mixing                       :        5.523 s           5.237 s
          | Total time for Hartree multipole update     :        0.158 s           0.161 s
          | Total time for Hartree multipole sum        :        0.133 s           0.132 s
          | Total time for total energy evaluation      :        0.007 s           0.006 s

          Partial memory accounting:
          | Residual value for overall tracked memory usage across tasks:     0.000000 MB (should be 0.000000 MB)
          | Peak values for overall tracked memory usage:
          |   Minimum:        0.820 MB (on task 106 after allocating gradient_basis_wave)
          |   Maximum:        2.195 MB (on task 472 after allocating gradient_basis_wave)
          |   Average:        1.876 MB
          | Largest tracked array allocation:
          |   Minimum:        0.223 MB (KS_eigenvector on task   4)
          |   Maximum:        0.710 MB (gradient_basis_wave on task 221)
          |   Average:        0.584 MB
          Note:  These values currently only include a subset of arrays which are explicitly tracked.
          The "true" memory usage will be greater.

          Have a nice day.
------------------------------------------------------------
