------------------------------------------------------------
          Invoking FHI-aims ...

          When using FHI-aims, please cite the following reference:

            Volker Blum, Ralf Gehrke, Felix Hanke, Paula Havu,
            Ville Havu, Xinguo Ren, Karsten Reuter, and Matthias Scheffler,
            'Ab Initio Molecular Simulations with Numeric Atom-Centered Orbitals',
            Computer Physics Communications 180, 2175-2196 (2009)

          In addition, many other developments in FHI-aims are likely important for
          your particular application. A partial list of references is given at the end of
          this file. Thank you for giving credit to the authors of these developments.

          For any questions about FHI-aims, please visit our slack channel at

            https://fhi-aims.slack.com

          and our main development and support site at

            https://aims-git.rz-berlin.mpg.de .

          The latter site, in particular, has a wiki to collect information, as well
          as an issue tracker to log discussions, suggest improvements, and report issues
          or bugs. https://aims-git.rz-berlin.mpg.de is also the main development site
          of the project and all new and updated code versions can be obtained there.
          Please send an email to aims-coordinators@fhi-berlin.mpg.de and we will add
          you to these sites. They are for you and everyone is welcome there.

------------------------------------------------------------



  Date     :  20240515, Time     :  123125.903
  Time zero on CPU 1             :   0.305330700000000E+01  s.
  Internal wall clock time zero  :           485008285.903  s.

  FHI-aims created a unique identifier for this run for later identification
  aims_uuid : 1A8A4A30-46C0-483C-A1D4-5E2C4CBAD025

  Build configuration of the current instance of FHI-aims
  -------------------------------------------------------
  FHI-aims version      : 221103.1
  Commit number         : GITDIR-NOTFOUND
  CMake host system     : Linux-4.18.0-372.32.1.el8_6.x86_64
  CMake version         : 3.24.3
  Fortran compiler      : /opt/software/pc2/EB-SW/software/OpenMPI/4.1.4-GCC-12.2.0/bin/mpifort (GNU) version 12.2.0
  Fortran compiler flags: -O3 -ffree-line-length-none -fallow-argument-mismatch -march=znver3 -mprefer-vector-width=256
  C compiler            : /opt/software/pc2/EB-SW/software/GCCcore/12.2.0/bin/gcc (GNU) version 12.2.0
  C compiler flags      : -O3 -DNDEBUG -funroll-loops -march=znver3 -mprefer-vector-width=256
  HIP compiler          :
  HIP compiler flags    :
  HIP GPU arch          :
  Using MPI
  Using ScaLAPACK
  Using LibXC
  Using i-PI
  Using RLSY
  Linking against: /opt/software/pc2/EB-SW/software/ScaLAPACK/2.2.0-gompi-2022b-fb/lib/libscalapack.so
                   /opt/software/pc2/EB-SW/software/OpenBLAS/0.3.21-GCC-12.2.0/lib/libopenblas.so

  Using      128 parallel tasks.
  Task        0 on host n2cn0167.ab2021.local reporting.
  Task        1 on host n2cn0167.ab2021.local reporting.
  Task        2 on host n2cn0167.ab2021.local reporting.
  Task        3 on host n2cn0167.ab2021.local reporting.
  Task        4 on host n2cn0167.ab2021.local reporting.
  Task        5 on host n2cn0167.ab2021.local reporting.
  Task        6 on host n2cn0167.ab2021.local reporting.
  Task        7 on host n2cn0167.ab2021.local reporting.
  Task        8 on host n2cn0167.ab2021.local reporting.
  Task        9 on host n2cn0167.ab2021.local reporting.
  Task       10 on host n2cn0167.ab2021.local reporting.
  Task       11 on host n2cn0167.ab2021.local reporting.
  Task       12 on host n2cn0167.ab2021.local reporting.
  Task       13 on host n2cn0167.ab2021.local reporting.
  Task       14 on host n2cn0167.ab2021.local reporting.
  Task       15 on host n2cn0167.ab2021.local reporting.
  Task       16 on host n2cn0167.ab2021.local reporting.
  Task       17 on host n2cn0167.ab2021.local reporting.
  Task       18 on host n2cn0167.ab2021.local reporting.
  Task       19 on host n2cn0167.ab2021.local reporting.
  Task       20 on host n2cn0167.ab2021.local reporting.
  Task       21 on host n2cn0167.ab2021.local reporting.
  Task       22 on host n2cn0167.ab2021.local reporting.
  Task       23 on host n2cn0167.ab2021.local reporting.
  Task       24 on host n2cn0167.ab2021.local reporting.
  Task       25 on host n2cn0167.ab2021.local reporting.
  Task       26 on host n2cn0167.ab2021.local reporting.
  Task       27 on host n2cn0167.ab2021.local reporting.
  Task       28 on host n2cn0167.ab2021.local reporting.
  Task       29 on host n2cn0167.ab2021.local reporting.
  Task       30 on host n2cn0167.ab2021.local reporting.
  Task       31 on host n2cn0167.ab2021.local reporting.
  Task       32 on host n2cn0167.ab2021.local reporting.
  Task       33 on host n2cn0167.ab2021.local reporting.
  Task       34 on host n2cn0167.ab2021.local reporting.
  Task       35 on host n2cn0167.ab2021.local reporting.
  Task       36 on host n2cn0167.ab2021.local reporting.
  Task       37 on host n2cn0167.ab2021.local reporting.
  Task       38 on host n2cn0167.ab2021.local reporting.
  Task       39 on host n2cn0167.ab2021.local reporting.
  Task       40 on host n2cn0167.ab2021.local reporting.
  Task       41 on host n2cn0167.ab2021.local reporting.
  Task       42 on host n2cn0167.ab2021.local reporting.
  Task       43 on host n2cn0167.ab2021.local reporting.
  Task       44 on host n2cn0167.ab2021.local reporting.
  Task       45 on host n2cn0167.ab2021.local reporting.
  Task       46 on host n2cn0167.ab2021.local reporting.
  Task       47 on host n2cn0167.ab2021.local reporting.
  Task       48 on host n2cn0167.ab2021.local reporting.
  Task       49 on host n2cn0167.ab2021.local reporting.
  Task       50 on host n2cn0167.ab2021.local reporting.
  Task       51 on host n2cn0167.ab2021.local reporting.
  Task       52 on host n2cn0167.ab2021.local reporting.
  Task       53 on host n2cn0167.ab2021.local reporting.
  Task       54 on host n2cn0167.ab2021.local reporting.
  Task       55 on host n2cn0167.ab2021.local reporting.
  Task       56 on host n2cn0167.ab2021.local reporting.
  Task       57 on host n2cn0167.ab2021.local reporting.
  Task       58 on host n2cn0167.ab2021.local reporting.
  Task       59 on host n2cn0167.ab2021.local reporting.
  Task       60 on host n2cn0167.ab2021.local reporting.
  Task       61 on host n2cn0167.ab2021.local reporting.
  Task       62 on host n2cn0167.ab2021.local reporting.
  Task       63 on host n2cn0167.ab2021.local reporting.
  Task       64 on host n2cn0167.ab2021.local reporting.
  Task       65 on host n2cn0167.ab2021.local reporting.
  Task       66 on host n2cn0167.ab2021.local reporting.
  Task       67 on host n2cn0167.ab2021.local reporting.
  Task       68 on host n2cn0167.ab2021.local reporting.
  Task       69 on host n2cn0167.ab2021.local reporting.
  Task       70 on host n2cn0167.ab2021.local reporting.
  Task       71 on host n2cn0167.ab2021.local reporting.
  Task       72 on host n2cn0167.ab2021.local reporting.
  Task       73 on host n2cn0167.ab2021.local reporting.
  Task       74 on host n2cn0167.ab2021.local reporting.
  Task       75 on host n2cn0167.ab2021.local reporting.
  Task       76 on host n2cn0167.ab2021.local reporting.
  Task       77 on host n2cn0167.ab2021.local reporting.
  Task       78 on host n2cn0167.ab2021.local reporting.
  Task       79 on host n2cn0167.ab2021.local reporting.
  Task       80 on host n2cn0167.ab2021.local reporting.
  Task       81 on host n2cn0167.ab2021.local reporting.
  Task       82 on host n2cn0167.ab2021.local reporting.
  Task       83 on host n2cn0167.ab2021.local reporting.
  Task       84 on host n2cn0167.ab2021.local reporting.
  Task       85 on host n2cn0167.ab2021.local reporting.
  Task       86 on host n2cn0167.ab2021.local reporting.
  Task       87 on host n2cn0167.ab2021.local reporting.
  Task       88 on host n2cn0167.ab2021.local reporting.
  Task       89 on host n2cn0167.ab2021.local reporting.
  Task       90 on host n2cn0167.ab2021.local reporting.
  Task       91 on host n2cn0167.ab2021.local reporting.
  Task       92 on host n2cn0167.ab2021.local reporting.
  Task       93 on host n2cn0167.ab2021.local reporting.
  Task       94 on host n2cn0167.ab2021.local reporting.
  Task       95 on host n2cn0167.ab2021.local reporting.
  Task       96 on host n2cn0167.ab2021.local reporting.
  Task       97 on host n2cn0167.ab2021.local reporting.
  Task       98 on host n2cn0167.ab2021.local reporting.
  Task       99 on host n2cn0167.ab2021.local reporting.
  Task      100 on host n2cn0167.ab2021.local reporting.
  Task      101 on host n2cn0167.ab2021.local reporting.
  Task      102 on host n2cn0167.ab2021.local reporting.
  Task      103 on host n2cn0167.ab2021.local reporting.
  Task      104 on host n2cn0167.ab2021.local reporting.
  Task      105 on host n2cn0167.ab2021.local reporting.
  Task      106 on host n2cn0167.ab2021.local reporting.
  Task      107 on host n2cn0167.ab2021.local reporting.
  Task      108 on host n2cn0167.ab2021.local reporting.
  Task      109 on host n2cn0167.ab2021.local reporting.
  Task      110 on host n2cn0167.ab2021.local reporting.
  Task      111 on host n2cn0167.ab2021.local reporting.
  Task      112 on host n2cn0167.ab2021.local reporting.
  Task      113 on host n2cn0167.ab2021.local reporting.
  Task      114 on host n2cn0167.ab2021.local reporting.
  Task      115 on host n2cn0167.ab2021.local reporting.
  Task      116 on host n2cn0167.ab2021.local reporting.
  Task      117 on host n2cn0167.ab2021.local reporting.
  Task      118 on host n2cn0167.ab2021.local reporting.
  Task      119 on host n2cn0167.ab2021.local reporting.
  Task      120 on host n2cn0167.ab2021.local reporting.
  Task      121 on host n2cn0167.ab2021.local reporting.
  Task      122 on host n2cn0167.ab2021.local reporting.
  Task      123 on host n2cn0167.ab2021.local reporting.
  Task      124 on host n2cn0167.ab2021.local reporting.
  Task      125 on host n2cn0167.ab2021.local reporting.
  Task      126 on host n2cn0167.ab2021.local reporting.
  Task      127 on host n2cn0167.ab2021.local reporting.

  Performing system and environment tests:
  | Environment variable OMP_NUM_THREADS correctly set to 1.
  | Checking for ScaLAPACK...
  | Testing pdtran()...
  | All pdtran() tests passed.

  Obtaining array dimensions for all initial allocations:
  
  -----------------------------------------------------------------------
  Parsing control.in (first pass over file, find array dimensions only).
  The contents of control.in will be repeated verbatim below
  unless switched off by setting 'verbatim_writeout .false.' .
  in the first line of control.in .
  -----------------------------------------------------------------------
  
  #control.in header for database project
  #using def2-QVPZ basis for light and heavy elements
  
  #########################################
    xc                 pbe
    qpe_calc           gw
    hybrid_xc_coeff 0.0
    #RI_method v
    #spin               collinear
    #default_initial_moment 0.01
    spin none
  
    anacon_type  1
    n_anacon_par 128
    frequency_points 600
    contour_def_gw   1 17
    contour_eta 0.004
    state_lower_limit 1
    state_upper_limit 500
    print_self_energy 6 -20.0 0.0
  
    relativistic none
    override_relativity .true.
    partition_type rho_r2
    density_update_method density_matrix
  
    calc_spectral_func -20.0 0.0 0.01
    spectral_func_state 6
  
  #########################################
    occupation_type    gaussian 0.000001
    mixer              pulay
      n_max_pulay        10
      charge_mix_param   0.2
    sc_accuracy_rho    1E-5
    sc_accuracy_eev    1E-5
    sc_accuracy_etot   1E-5
    sc_iter_limit      400
  #########################################
    prodbas_threshold  1.e-5
    KS_method          serial
    empty_states       25000
    # Do not check for overlapping xxx matrix
    # Not recommended
    # Necessary for large basis sets
    override_illconditioning .true.
    #basis_threshold 1.e-5
  #########################################
  ################################################################################
  #
  #  FHI-aims code project
  #  VB, Fritz-Haber Institut, 2007
  #
  #  Suggested "safe" defaults for B atom (to be pasted into control.in file)
  #
  ################################################################################
    species        B
  #     global species definitions
      nucleus             5
      mass                10.811
  #
      l_hartree           8
  #
      cut_pot             4.0  2.0  1.0
      basis_dep_cutoff    0.d0
  #
      radial_base         32 7.0
      radial_multiplier   2
      angular_grids       specified
        division   0.3742  110
        division   0.5197  194
        division   0.5753  302
        division   0.7664  434
  #      division   0.8392  770
  #      division   1.6522  974
  #      outer_grid   974
        outer_grid   590
  ################################################################################
  #
  #  Definition of "minimal" basis
  #
  ################################################################################
  #     valence basis states
      valence      2  s   2.
      valence      2  p   1.
  #     ion occupancy
      ion_occ      2  s   1.
  
  
  
              # The default minimal basis should not be included
              include_min_basis .false.
              # Use spherical functions?
              pure_gauss .true.
              # B def2-QZVP
  gaussian 0 8
  46447.6670560              0.38388681014E-04
   6957.6889042              0.29836770197E-03
   1583.4428403              0.15645478806E-02
    448.46601009             0.65476770742E-02
    146.28639262             0.23139008388E-01
     52.784386084            0.69615799357E-01
     20.519396170            0.17119636876
      8.4185659258           0.31913191837
  gaussian 0 2
     36.510018312            0.78990617244E-01
     10.541854005            0.78926384265
  gaussian 0 1 3.6004091387
  gaussian 0 1 1.5617023749
  gaussian 0 1 0.44997370775
  gaussian 0 1 0.18075230237
  gaussian 0 1 0.71596696319E-01
  gaussian 1 5
     72.240462760            0.86539170411E-03
     16.807707208            0.68762067365E-02
      5.2259410747           0.30976687148E-01
      1.8508350671           0.10432357913
      0.72206782663          0.26164137577
  gaussian 1 1 0.29491018056
  gaussian 1 1 0.12201141839
  gaussian 1 1 0.49865393625E-01
  gaussian 2 1 1.11000000
  gaussian 2 1 0.40200000
  gaussian 2 1 0.14500000
  gaussian 3 1 0.88200000
  gaussian 3 1 0.31100000
  gaussian 4 1 0.67300000
  
  ################################################################################
  #
  #  FHI-aims code project
  #  VB, Fritz-Haber Institut, 2007
  #
  #  Suggested "safe" defaults for N atom (to be pasted into control.in file)
  #
  ################################################################################
    species        N
  #     global species definitions
      nucleus             7
      mass                14.0067
  #
      l_hartree           8
  #
      cut_pot             4.0  2.0  1.0
      basis_dep_cutoff    0.d0
  #
      radial_base         35 7.0
      radial_multiplier   2
      angular_grids       specified
        division   0.3806  110
        division   0.5126  194
        division   0.5309  302
        division   0.7632  434
  #      division   0.7874  770
  #      division   3.0496  974
  #      outer_grid  974
        outer_grid  590
  ################################################################################
  #
  #  Definition of "minimal" basis
  #
  ################################################################################
  #     valence basis states
      valence      2  s   2.
      valence      2  p   3.
  #     ion occupancy
      ion_occ      2  s   1.
      ion_occ      2  p   2.
  
  
              # The default minimal basis should not be included
              include_min_basis .false.
              # Use spherical functions?
              pure_gauss .true.
              # N def2-QZVP
  gaussian 0 8
  90726.8892100              0.39257887368E-04
  13590.5288010              0.30513316455E-03
   3092.9883781              0.16000560446E-02
    875.99876362             0.66982937306E-02
    285.74469982             0.23690078765E-01
    103.11913417             0.71455405268E-01
     40.128556777            0.17632774876
     16.528095704            0.32677592815
  gaussian 0 2
     69.390960983            0.80052094386E-01
     20.428200596            0.78268063538
  gaussian 0 1 7.1292587972
  gaussian 0 1 3.1324304893
  gaussian 0 1 0.98755778723
  gaussian 0 1 0.38765721307
  gaussian 0 1 0.14909883075
  gaussian 1 5
    150.05742670            -0.86216165986E-03
     35.491599483           -0.68571273236E-02
     11.247864223           -0.31795688855E-01
      4.0900305195          -0.10537396822
      1.6220573146          -0.24519708041
  gaussian 1 1 0.66442261530
  gaussian 1 1 0.27099770070
  gaussian 1 1 0.10688749984
  gaussian 2 1 2.83700000
  gaussian 2 1 0.96800000
  gaussian 2 1 0.33500000
  gaussian 3 1 2.02700000
  gaussian 3 1 0.68500000
  gaussian 4 1 1.42700000
  
  
  
  -----------------------------------------------------------------------
  Completed first pass over input file control.in .
  -----------------------------------------------------------------------
  
  
  -----------------------------------------------------------------------
  Parsing geometry.in (first pass over file, find array dimensions only).
  The contents of geometry.in will be repeated verbatim below
  unless switched off by setting 'verbatim_writeout .false.' .
  in the first line of geometry.in .
  -----------------------------------------------------------------------
  
  atom 0.0000 0.0000 0.0000 B
  atom 0.0000 0.0000 1.281  N
  
  
  -----------------------------------------------------------------------
  Completed first pass over input file geometry.in .
  -----------------------------------------------------------------------
  

  Basic array size parameters:
  | Number of species                 :        2
  | Number of atoms                   :        2
  | Max. basis fn. angular momentum   :        4
  | Max. atomic/ionic basis occupied n:        2
  | Max. number of basis fn. types    :        1
  | Max. radial fns per species/type  :       24
  | Max. logarithmic grid size        :     1290
  | Max. radial integration grid size :       71
  | Max. angular integration grid size:      590
  | Max. angular grid division number :        8
  | Radial grid for Hartree potential :     1290
  | Number of spin channels           :        1

------------------------------------------------------------
          Reading file control.in.
------------------------------------------------------------
  XC: Using PBE gradient-corrected functionals.
  GW quasiparticle calculation of excited states will be started after the DFT/HF calculation.
  hybrid_xc_coeff: Mixing coefficient for hybrid-functional exact exchange modified to         0.00000000 .
  * WARNING: This change modifies the chosen exchange-correlation functional (keyword 'xc')
  * from its literature definition. Be sure to NEVER include such a line in any default control.in files!
  Spin treatment: No spin polarisation.
  Using Pade approximation for analytical continuation.
  Number of fitting parameters for analytical continuation :    128
  Number of frequency points used for the self-energy calculation:    600
  Contour deformation in GW for the levels:      1     to      17
  Broadening parameter eta:       0.004000
  Lower limit of the eigenstates for the self-energy correction :      1
  Upper limit of the eigenstates for the self-energy correction :    500
  Non-relativistic treatment of kinetic energy.
  override_relativity: Explicitly overriding any built-in relativity checks.
  If you use this flag, you should really know what you are doing.
  Partition function in integrals calculations: rho / r^2
  Spectral function will be calculated from:   -20.000   to        0.000  eV
  Occupation type: Gaussian broadening, width =   0.100000E-05 eV.
  Using pulay charge density mixing.
  Pulay mixing - number of memorized iterations:   10
  Charge density mixing - mixing parameter:     0.2000
  Convergence accuracy of self-consistent charge density:  0.1000E-04
  Convergence accuracy of sum of eigenvalues:  0.1000E-04
  Convergence accuracy of total energy:  0.1000E-04
  Maximum number of s.-c. iterations  :   400
  Threshold for auxiliary basis singularities:  0.1000E-04
  Kohn-Sham eigenvalues and eigenfunctions calculated by LAPACK via ELSI.
  Number of empty states per atom:    25000
  override_illconditioning: Explicitly overriding any built-in checks for an ill-conditioned overlap matrix.
  *** WARNING: If you use this flag, you should really know what you are doing.
  *** DO NOT keep this flag set by default in all your control.in files.

  Reading configuration options for species B                   .
  | Found nuclear charge :   5.0000
  | Found atomic mass :    10.811000000000000      amu
  | Found l_max for Hartree potential  :   8
  | Found cutoff potl. onset [A], width [A], scale factor :    4.00000    2.00000    1.00000
  | Threshold for basis-dependent cutoff potential is   0.000000E+00
  | Found data for basic radial integration grid :    32 points, outermost radius =    7.000 A
  | Found multiplier for basic radial grid :   2
  | Found angular grid specification: user-specified.
  | Specified grid contains     5 separate shells.
  | Check grid settings after all constraints further below.
  | Found free-atom valence shell :  2 s   2.000
  | Found free-atom valence shell :  2 p   1.000
  | No ionic wave fns used. Skipping ion_occ.
  | Found request to include minimal basis fns. :     F
  | Found request to include pure gaussian fns. :     T
  | Found contracted cartesian Gaussian basis function :  L = 0 ,   8 elementary Gaussians:
  |   alpha = 0.464477E+05 weight = 0.383887E-04
  |   alpha = 0.695769E+04 weight = 0.298368E-03
  |   alpha = 0.158344E+04 weight = 0.156455E-02
  |   alpha = 0.448466E+03 weight = 0.654768E-02
  |   alpha = 0.146286E+03 weight = 0.231390E-01
  |   alpha = 0.527844E+02 weight = 0.696158E-01
  |   alpha = 0.205194E+02 weight = 0.171196E+00
  |   alpha = 0.841857E+01 weight = 0.319132E+00
  |   In terms of angular momentum, this radial function adds: 
  |     1 s-type basis function
  | Found contracted cartesian Gaussian basis function :  L = 0 ,   2 elementary Gaussians:
  |   alpha = 0.365100E+02 weight = 0.789906E-01
  |   alpha = 0.105419E+02 weight = 0.789264E+00
  |   In terms of angular momentum, this radial function adds: 
  |     1 s-type basis function
  | Found primitive cartesian Gaussian basis function :  0 0.360041E+01
  |   In terms of angular momentum, this radial function adds: 
  |     1 s-type basis function
  | Found primitive cartesian Gaussian basis function :  0 0.156170E+01
  |   In terms of angular momentum, this radial function adds: 
  |     1 s-type basis function
  | Found primitive cartesian Gaussian basis function :  0 0.449974E+00
  |   In terms of angular momentum, this radial function adds: 
  |     1 s-type basis function
  | Found primitive cartesian Gaussian basis function :  0 0.180752E+00
  |   In terms of angular momentum, this radial function adds: 
  |     1 s-type basis function
  | Found primitive cartesian Gaussian basis function :  0 0.715967E-01
  |   In terms of angular momentum, this radial function adds: 
  |     1 s-type basis function
  | Found contracted cartesian Gaussian basis function :  L = 1 ,   5 elementary Gaussians:
  |   alpha = 0.722405E+02 weight = 0.865392E-03
  |   alpha = 0.168077E+02 weight = 0.687621E-02
  |   alpha = 0.522594E+01 weight = 0.309767E-01
  |   alpha = 0.185084E+01 weight = 0.104324E+00
  |   alpha = 0.722068E+00 weight = 0.261641E+00
  |   In terms of angular momentum, this radial function adds: 
  |     3 p-type basis functions
  | Found primitive cartesian Gaussian basis function :  1 0.294910E+00
  |   In terms of angular momentum, this radial function adds: 
  |     3 p-type basis functions
  | Found primitive cartesian Gaussian basis function :  1 0.122011E+00
  |   In terms of angular momentum, this radial function adds: 
  |     3 p-type basis functions
  | Found primitive cartesian Gaussian basis function :  1 0.498654E-01
  |   In terms of angular momentum, this radial function adds: 
  |     3 p-type basis functions
  | Found primitive cartesian Gaussian basis function :  2 0.111000E+01
  |   In terms of angular momentum, this radial function adds: 
  |     5 d-type basis functions
  | Found primitive cartesian Gaussian basis function :  2 0.402000E+00
  |   In terms of angular momentum, this radial function adds: 
  |     5 d-type basis functions
  | Found primitive cartesian Gaussian basis function :  2 0.145000E+00
  |   In terms of angular momentum, this radial function adds: 
  |     5 d-type basis functions
  | Found primitive cartesian Gaussian basis function :  3 0.882000E+00
  |   In terms of angular momentum, this radial function adds: 
  |     7 f-type basis functions
  | Found primitive cartesian Gaussian basis function :  3 0.311000E+00
  |   In terms of angular momentum, this radial function adds: 
  |     7 f-type basis functions
  | Found primitive cartesian Gaussian basis function :  4 0.673000E+00
  |   In terms of angular momentum, this radial function adds: 
  |     9 g-type basis functions
  Species B                   : Missing cutoff potential type.
  Defaulting to exp(1/x)/(1-x)^2 type cutoff potential.
  Species B : No 'logarithmic' tag. Using default grid for free atom:
  | Default logarithmic grid data [bohr] : 0.1000E-03 0.1000E+03 0.1012E+01
  Species B : On-site basis accuracy parameter (for Gram-Schmidt orthonormalisation) not specified.
  Using default value basis_acc =  0.1000000E-03.
  Species B                   : Using default innermost maximum threshold i_radial=  2 for radial functions.
  Species B                   : Default cutoff onset for free atom density etc. is infinite
  since the product basis is used (hybrid functionals, Hartree-Fock, GW etc.).
  Species B                   : Basic radial grid will be enhanced according to radial_multiplier =   2, to contain    65 grid points.

  Reading configuration options for species N                   .
  | Found nuclear charge :   7.0000
  | Found atomic mass :    14.006700000000000      amu
  | Found l_max for Hartree potential  :   8
  | Found cutoff potl. onset [A], width [A], scale factor :    4.00000    2.00000    1.00000
  | Threshold for basis-dependent cutoff potential is   0.000000E+00
  | Found data for basic radial integration grid :    35 points, outermost radius =    7.000 A
  | Found multiplier for basic radial grid :   2
  | Found angular grid specification: user-specified.
  | Specified grid contains     5 separate shells.
  | Check grid settings after all constraints further below.
  | Found free-atom valence shell :  2 s   2.000
  | Found free-atom valence shell :  2 p   3.000
  | No ionic wave fns used. Skipping ion_occ.
  | No ionic wave fns used. Skipping ion_occ.
  | Found request to include minimal basis fns. :     F
  | Found request to include pure gaussian fns. :     T
  | Found contracted cartesian Gaussian basis function :  L = 0 ,   8 elementary Gaussians:
  |   alpha = 0.907269E+05 weight = 0.392579E-04
  |   alpha = 0.135905E+05 weight = 0.305133E-03
  |   alpha = 0.309299E+04 weight = 0.160006E-02
  |   alpha = 0.875999E+03 weight = 0.669829E-02
  |   alpha = 0.285745E+03 weight = 0.236901E-01
  |   alpha = 0.103119E+03 weight = 0.714554E-01
  |   alpha = 0.401286E+02 weight = 0.176328E+00
  |   alpha = 0.165281E+02 weight = 0.326776E+00
  |   In terms of angular momentum, this radial function adds: 
  |     1 s-type basis function
  | Found contracted cartesian Gaussian basis function :  L = 0 ,   2 elementary Gaussians:
  |   alpha = 0.693910E+02 weight = 0.800521E-01
  |   alpha = 0.204282E+02 weight = 0.782681E+00
  |   In terms of angular momentum, this radial function adds: 
  |     1 s-type basis function
  | Found primitive cartesian Gaussian basis function :  0 0.712926E+01
  |   In terms of angular momentum, this radial function adds: 
  |     1 s-type basis function
  | Found primitive cartesian Gaussian basis function :  0 0.313243E+01
  |   In terms of angular momentum, this radial function adds: 
  |     1 s-type basis function
  | Found primitive cartesian Gaussian basis function :  0 0.987558E+00
  |   In terms of angular momentum, this radial function adds: 
  |     1 s-type basis function
  | Found primitive cartesian Gaussian basis function :  0 0.387657E+00
  |   In terms of angular momentum, this radial function adds: 
  |     1 s-type basis function
  | Found primitive cartesian Gaussian basis function :  0 0.149099E+00
  |   In terms of angular momentum, this radial function adds: 
  |     1 s-type basis function
  | Found contracted cartesian Gaussian basis function :  L = 1 ,   5 elementary Gaussians:
  |   alpha = 0.150057E+03 weight = -.862162E-03
  |   alpha = 0.354916E+02 weight = -.685713E-02
  |   alpha = 0.112479E+02 weight = -.317957E-01
  |   alpha = 0.409003E+01 weight = -.105374E+00
  |   alpha = 0.162206E+01 weight = -.245197E+00
  |   In terms of angular momentum, this radial function adds: 
  |     3 p-type basis functions
  | Found primitive cartesian Gaussian basis function :  1 0.664423E+00
  |   In terms of angular momentum, this radial function adds: 
  |     3 p-type basis functions
  | Found primitive cartesian Gaussian basis function :  1 0.270998E+00
  |   In terms of angular momentum, this radial function adds: 
  |     3 p-type basis functions
  | Found primitive cartesian Gaussian basis function :  1 0.106887E+00
  |   In terms of angular momentum, this radial function adds: 
  |     3 p-type basis functions
  | Found primitive cartesian Gaussian basis function :  2 0.283700E+01
  |   In terms of angular momentum, this radial function adds: 
  |     5 d-type basis functions
  | Found primitive cartesian Gaussian basis function :  2 0.968000E+00
  |   In terms of angular momentum, this radial function adds: 
  |     5 d-type basis functions
  | Found primitive cartesian Gaussian basis function :  2 0.335000E+00
  |   In terms of angular momentum, this radial function adds: 
  |     5 d-type basis functions
  | Found primitive cartesian Gaussian basis function :  3 0.202700E+01
  |   In terms of angular momentum, this radial function adds: 
  |     7 f-type basis functions
  | Found primitive cartesian Gaussian basis function :  3 0.685000E+00
  |   In terms of angular momentum, this radial function adds: 
  |     7 f-type basis functions
  | Found primitive cartesian Gaussian basis function :  4 0.142700E+01
  |   In terms of angular momentum, this radial function adds: 
  |     9 g-type basis functions
  Species N                   : Missing cutoff potential type.
  Defaulting to exp(1/x)/(1-x)^2 type cutoff potential.
  Species N : No 'logarithmic' tag. Using default grid for free atom:
  | Default logarithmic grid data [bohr] : 0.1000E-03 0.1000E+03 0.1012E+01
  Species N : On-site basis accuracy parameter (for Gram-Schmidt orthonormalisation) not specified.
  Using default value basis_acc =  0.1000000E-03.
  Species N                   : Using default innermost maximum threshold i_radial=  2 for radial functions.
  Species N                   : Default cutoff onset for free atom density etc. is infinite
  since the product basis is used (hybrid functionals, Hartree-Fock, GW etc.).
  Species N                   : Basic radial grid will be enhanced according to radial_multiplier =   2, to contain    71 grid points.

  Finished reading input file 'control.in'.

------------------------------------------------------------


------------------------------------------------------------
          Reading geometry description geometry.in.
------------------------------------------------------------
  | The smallest distance between any two atoms is         1.28100000 AA.
  | The first atom of this pair is atom number                      1 .
  | The second atom of this pair is atom number                     2 .
  Input structure read successfully.
  The structure contains        2 atoms,  and a total of         12.000 electrons.

  Input geometry:
  | No unit cell requested.
  | Atomic structure:
  |       Atom                x [A]            y [A]            z [A]
  |    1: Species B             0.00000000        0.00000000        0.00000000
  |    2: Species N             0.00000000        0.00000000        1.28100000


  Finished reading input file 'geometry.in'.



  Consistency checks for stacksize environment parameter are next.

  | Maximum stacksize for task 0: unlimited
  | Maximum stacksize for task 1: unlimited
  | Maximum stacksize for task 2: unlimited
  | Maximum stacksize for task 3: unlimited
  | Maximum stacksize for task 4: unlimited
  | Maximum stacksize for task 5: unlimited
  | Maximum stacksize for task 6: unlimited
  | Maximum stacksize for task 7: unlimited
  | Maximum stacksize for task 8: unlimited
  | Maximum stacksize for task 9: unlimited
  | Maximum stacksize for task 10: unlimited
  | Maximum stacksize for task 11: unlimited
  | Maximum stacksize for task 12: unlimited
  | Maximum stacksize for task 13: unlimited
  | Maximum stacksize for task 14: unlimited
  | Maximum stacksize for task 15: unlimited
  | Maximum stacksize for task 16: unlimited
  | Maximum stacksize for task 17: unlimited
  | Maximum stacksize for task 18: unlimited
  | Maximum stacksize for task 19: unlimited
  | Maximum stacksize for task 20: unlimited
  | Maximum stacksize for task 21: unlimited
  | Maximum stacksize for task 22: unlimited
  | Maximum stacksize for task 23: unlimited
  | Maximum stacksize for task 24: unlimited
  | Maximum stacksize for task 25: unlimited
  | Maximum stacksize for task 26: unlimited
  | Maximum stacksize for task 27: unlimited
  | Maximum stacksize for task 28: unlimited
  | Maximum stacksize for task 29: unlimited
  | Maximum stacksize for task 30: unlimited
  | Maximum stacksize for task 31: unlimited
  | Maximum stacksize for task 32: unlimited
  | Maximum stacksize for task 33: unlimited
  | Maximum stacksize for task 34: unlimited
  | Maximum stacksize for task 35: unlimited
  | Maximum stacksize for task 36: unlimited
  | Maximum stacksize for task 37: unlimited
  | Maximum stacksize for task 38: unlimited
  | Maximum stacksize for task 39: unlimited
  | Maximum stacksize for task 40: unlimited
  | Maximum stacksize for task 41: unlimited
  | Maximum stacksize for task 42: unlimited
  | Maximum stacksize for task 43: unlimited
  | Maximum stacksize for task 44: unlimited
  | Maximum stacksize for task 45: unlimited
  | Maximum stacksize for task 46: unlimited
  | Maximum stacksize for task 47: unlimited
  | Maximum stacksize for task 48: unlimited
  | Maximum stacksize for task 49: unlimited
  | Maximum stacksize for task 50: unlimited
  | Maximum stacksize for task 51: unlimited
  | Maximum stacksize for task 52: unlimited
  | Maximum stacksize for task 53: unlimited
  | Maximum stacksize for task 54: unlimited
  | Maximum stacksize for task 55: unlimited
  | Maximum stacksize for task 56: unlimited
  | Maximum stacksize for task 57: unlimited
  | Maximum stacksize for task 58: unlimited
  | Maximum stacksize for task 59: unlimited
  | Maximum stacksize for task 60: unlimited
  | Maximum stacksize for task 61: unlimited
  | Maximum stacksize for task 62: unlimited
  | Maximum stacksize for task 63: unlimited
  | Maximum stacksize for task 64: unlimited
  | Maximum stacksize for task 65: unlimited
  | Maximum stacksize for task 66: unlimited
  | Maximum stacksize for task 67: unlimited
  | Maximum stacksize for task 68: unlimited
  | Maximum stacksize for task 69: unlimited
  | Maximum stacksize for task 70: unlimited
  | Maximum stacksize for task 71: unlimited
  | Maximum stacksize for task 72: unlimited
  | Maximum stacksize for task 73: unlimited
  | Maximum stacksize for task 74: unlimited
  | Maximum stacksize for task 75: unlimited
  | Maximum stacksize for task 76: unlimited
  | Maximum stacksize for task 77: unlimited
  | Maximum stacksize for task 78: unlimited
  | Maximum stacksize for task 79: unlimited
  | Maximum stacksize for task 80: unlimited
  | Maximum stacksize for task 81: unlimited
  | Maximum stacksize for task 82: unlimited
  | Maximum stacksize for task 83: unlimited
  | Maximum stacksize for task 84: unlimited
  | Maximum stacksize for task 85: unlimited
  | Maximum stacksize for task 86: unlimited
  | Maximum stacksize for task 87: unlimited
  | Maximum stacksize for task 88: unlimited
  | Maximum stacksize for task 89: unlimited
  | Maximum stacksize for task 90: unlimited
  | Maximum stacksize for task 91: unlimited
  | Maximum stacksize for task 92: unlimited
  | Maximum stacksize for task 93: unlimited
  | Maximum stacksize for task 94: unlimited
  | Maximum stacksize for task 95: unlimited
  | Maximum stacksize for task 96: unlimited
  | Maximum stacksize for task 97: unlimited
  | Maximum stacksize for task 98: unlimited
  | Maximum stacksize for task 99: unlimited
  | Maximum stacksize for task 100: unlimited
  | Maximum stacksize for task 101: unlimited
  | Maximum stacksize for task 102: unlimited
  | Maximum stacksize for task 103: unlimited
  | Maximum stacksize for task 104: unlimited
  | Maximum stacksize for task 105: unlimited
  | Maximum stacksize for task 106: unlimited
  | Maximum stacksize for task 107: unlimited
  | Maximum stacksize for task 108: unlimited
  | Maximum stacksize for task 109: unlimited
  | Maximum stacksize for task 110: unlimited
  | Maximum stacksize for task 111: unlimited
  | Maximum stacksize for task 112: unlimited
  | Maximum stacksize for task 113: unlimited
  | Maximum stacksize for task 114: unlimited
  | Maximum stacksize for task 115: unlimited
  | Maximum stacksize for task 116: unlimited
  | Maximum stacksize for task 117: unlimited
  | Maximum stacksize for task 118: unlimited
  | Maximum stacksize for task 119: unlimited
  | Maximum stacksize for task 120: unlimited
  | Maximum stacksize for task 121: unlimited
  | Maximum stacksize for task 122: unlimited
  | Maximum stacksize for task 123: unlimited
  | Maximum stacksize for task 124: unlimited
  | Maximum stacksize for task 125: unlimited
  | Maximum stacksize for task 126: unlimited
  | Maximum stacksize for task 127: unlimited
  | Current stacksize for task 0: unlimited
  | Current stacksize for task 1: unlimited
  | Current stacksize for task 2: unlimited
  | Current stacksize for task 3: unlimited
  | Current stacksize for task 4: unlimited
  | Current stacksize for task 5: unlimited
  | Current stacksize for task 6: unlimited
  | Current stacksize for task 7: unlimited
  | Current stacksize for task 8: unlimited
  | Current stacksize for task 9: unlimited
  | Current stacksize for task 10: unlimited
  | Current stacksize for task 11: unlimited
  | Current stacksize for task 12: unlimited
  | Current stacksize for task 13: unlimited
  | Current stacksize for task 14: unlimited
  | Current stacksize for task 15: unlimited
  | Current stacksize for task 16: unlimited
  | Current stacksize for task 17: unlimited
  | Current stacksize for task 18: unlimited
  | Current stacksize for task 19: unlimited
  | Current stacksize for task 20: unlimited
  | Current stacksize for task 21: unlimited
  | Current stacksize for task 22: unlimited
  | Current stacksize for task 23: unlimited
  | Current stacksize for task 24: unlimited
  | Current stacksize for task 25: unlimited
  | Current stacksize for task 26: unlimited
  | Current stacksize for task 27: unlimited
  | Current stacksize for task 28: unlimited
  | Current stacksize for task 29: unlimited
  | Current stacksize for task 30: unlimited
  | Current stacksize for task 31: unlimited
  | Current stacksize for task 32: unlimited
  | Current stacksize for task 33: unlimited
  | Current stacksize for task 34: unlimited
  | Current stacksize for task 35: unlimited
  | Current stacksize for task 36: unlimited
  | Current stacksize for task 37: unlimited
  | Current stacksize for task 38: unlimited
  | Current stacksize for task 39: unlimited
  | Current stacksize for task 40: unlimited
  | Current stacksize for task 41: unlimited
  | Current stacksize for task 42: unlimited
  | Current stacksize for task 43: unlimited
  | Current stacksize for task 44: unlimited
  | Current stacksize for task 45: unlimited
  | Current stacksize for task 46: unlimited
  | Current stacksize for task 47: unlimited
  | Current stacksize for task 48: unlimited
  | Current stacksize for task 49: unlimited
  | Current stacksize for task 50: unlimited
  | Current stacksize for task 51: unlimited
  | Current stacksize for task 52: unlimited
  | Current stacksize for task 53: unlimited
  | Current stacksize for task 54: unlimited
  | Current stacksize for task 55: unlimited
  | Current stacksize for task 56: unlimited
  | Current stacksize for task 57: unlimited
  | Current stacksize for task 58: unlimited
  | Current stacksize for task 59: unlimited
  | Current stacksize for task 60: unlimited
  | Current stacksize for task 61: unlimited
  | Current stacksize for task 62: unlimited
  | Current stacksize for task 63: unlimited
  | Current stacksize for task 64: unlimited
  | Current stacksize for task 65: unlimited
  | Current stacksize for task 66: unlimited
  | Current stacksize for task 67: unlimited
  | Current stacksize for task 68: unlimited
  | Current stacksize for task 69: unlimited
  | Current stacksize for task 70: unlimited
  | Current stacksize for task 71: unlimited
  | Current stacksize for task 72: unlimited
  | Current stacksize for task 73: unlimited
  | Current stacksize for task 74: unlimited
  | Current stacksize for task 75: unlimited
  | Current stacksize for task 76: unlimited
  | Current stacksize for task 77: unlimited
  | Current stacksize for task 78: unlimited
  | Current stacksize for task 79: unlimited
  | Current stacksize for task 80: unlimited
  | Current stacksize for task 81: unlimited
  | Current stacksize for task 82: unlimited
  | Current stacksize for task 83: unlimited
  | Current stacksize for task 84: unlimited
  | Current stacksize for task 85: unlimited
  | Current stacksize for task 86: unlimited
  | Current stacksize for task 87: unlimited
  | Current stacksize for task 88: unlimited
  | Current stacksize for task 89: unlimited
  | Current stacksize for task 90: unlimited
  | Current stacksize for task 91: unlimited
  | Current stacksize for task 92: unlimited
  | Current stacksize for task 93: unlimited
  | Current stacksize for task 94: unlimited
  | Current stacksize for task 95: unlimited
  | Current stacksize for task 96: unlimited
  | Current stacksize for task 97: unlimited
  | Current stacksize for task 98: unlimited
  | Current stacksize for task 99: unlimited
  | Current stacksize for task 100: unlimited
  | Current stacksize for task 101: unlimited
  | Current stacksize for task 102: unlimited
  | Current stacksize for task 103: unlimited
  | Current stacksize for task 104: unlimited
  | Current stacksize for task 105: unlimited
  | Current stacksize for task 106: unlimited
  | Current stacksize for task 107: unlimited
  | Current stacksize for task 108: unlimited
  | Current stacksize for task 109: unlimited
  | Current stacksize for task 110: unlimited
  | Current stacksize for task 111: unlimited
  | Current stacksize for task 112: unlimited
  | Current stacksize for task 113: unlimited
  | Current stacksize for task 114: unlimited
  | Current stacksize for task 115: unlimited
  | Current stacksize for task 116: unlimited
  | Current stacksize for task 117: unlimited
  | Current stacksize for task 118: unlimited
  | Current stacksize for task 119: unlimited
  | Current stacksize for task 120: unlimited
  | Current stacksize for task 121: unlimited
  | Current stacksize for task 122: unlimited
  | Current stacksize for task 123: unlimited
  | Current stacksize for task 124: unlimited
  | Current stacksize for task 125: unlimited
  | Current stacksize for task 126: unlimited
  | Current stacksize for task 127: unlimited

  Consistency checks for the contents of control.in are next.

  MPI_IN_PLACE appears to work with this MPI implementation.
  | Keeping use_mpi_in_place .true. (see manual).
  Explicit treatment of the Coulomb operator is needed, but the RI method is not specified.
  Coulomb operator: Defaulting to 'RI-V' resolution of identity - RI_type = V
  Species B: Using default value for prodbas_acc =   1.000000E-02.
  Species B: Using default value max_l_prodbas =     5.
  Species N: Using default value for prodbas_acc =   1.000000E-02.
  Species N: Using default value max_l_prodbas =     5.
 * Species B: Specified min. number of angular integration points is   110
 * The angular momenta for this species require   194 for RI_type 'V'. Increasing angular_min to   194.
 * Species B: Grid shell     1 contains only   110 angular integration points.
 * Increasing to angular_min =   194 integration points.
 * This change is related to the three-center integrals used in RI_method 'V'.
 * Species N: Specified min. number of angular integration points is   110
 * The angular momenta for this species require   194 for RI_type 'V'. Increasing angular_min to   194.
 * Species N: Grid shell     1 contains only   110 angular integration points.
 * Increasing to angular_min =   194 integration points.
 * This change is related to the three-center integrals used in RI_method 'V'.
  Target number of points in a grid batch is not set. Defaulting to  100
  Method for grid partitioning is not set. Defaulting to parallel hash+maxmin partitioning.
  Batch size limit is not set. Defaulting to    200
  By default, will store active basis functions for each batch.
  If in need of memory, prune_basis_once .false. can be used to disable this option.
  communication_type for Hartree potential was not specified.
  Defaulting to calc_hartree .
  Pulay mixer: Number of initial linear mixing iterations not set.
  Defaulting to    0 iterations.
  Work space size for distributed Hartree potential not set.
  Defaulting to   0.200000E+03 MB.
  Algorithm-dependent basis array size parameters:
  | n_max_pulay                         :       10
  Presetting      1001 iterations before the initial mixing cycle
  is restarted anyway using the sc_init_iter criterion / keyword.
  Presetting a factor      1.000 between actual scf density residual
  and density convergence criterion sc_accuracy_rho below which sc_init_iter
  takes no effect.
  Calculation of forces was not defined in control.in. No forces will be calculated.
  Geometry relaxation not requested: no relaxation will be performed.
  No accuracy limit for integral partition fn. given. Defaulting to  0.1000E-14.
  No threshold value for u(r) in integrations given. Defaulting to  0.1000E-05.
  No accuracy for occupation numbers given. Defaulting to  0.1000E-12.
  No threshold value for occupation numbers given. Defaulting to  0.0000E+00.
  No accuracy for fermi level given. Defaulting to  0.1000E-19.
  Maximum # of iterations to find E_F not set. Defaulting to  200.
  Will not use alltoall communication since running on < 1024 CPUs.
  Threshold for basis singularities not set.
  Default threshold for basis singularities:  0.1000E-04
  Partitioning for Hartree potential was not defined. Using partition_type for integrals.
  | Reporting present value of keyword multip_moments_threshold  :       0.10000000E-09
  | This value may affect high angular momentum components of the Hartree potential in periodic systems.
  * Doing correlated calculations, so all empty single-particle states will be included.
  No q(lm)/r^(l+1) cutoff set for long-range Hartree potential.
  | Using default value of  0.100000E-09 .
  | Verify using the multipole_threshold keyword.
  Defaulting to new monopole extrapolation.
  Density update method: density matrix based density update selected.
  Charge integration errors on the 3D integration grid will be compensated
  by explicit normalization and distribution of residual charges.
  Use the "compensate_multipole_errors" flag to change this behaviour.
  Default to 1D ("use_logsbt") integrations for auxiliary 2-center integrals.
  Default onset of logarithmic r-grid for SBT is -38.000000000000
  Default onset of logarithmic k-grid for SBT is -25.000000000000
  Default range of logarithmic r- and k-grid for SBT is  45.000000000000
  Default number of logarithmic r- and k-grid for SBT is   4096
  *** Contour Deformation: Only support 2D parallization. Switching.
  Set 'collect_eigenvectors' to be '.true.' for GW/RPA/MP2, SCREX/COHSEX cluster calculations
  Set 'collect_eigenvectors' to be '.true.' for qpe_calc (quasiparticle energy).
  Set 'collect_eigenvectors' to be '.true.' for KS_method lapack_fast and serial.

  Consistency checks for the contents of geometry.in are next.

  Number of empty states per atom not set in control.in .
  | Since you are using a method that relies on the unoccupied spectrum
  | (MP2,GW,RPA et al.), will use the full Hamiltonian size (see below)
  | as the max. possible number of states (occupied plus empty).

  Structure-dependent array size parameters: 
  | Maximum number of distinct radial functions  :       34
  | Maximum number of basis functions            :      114
  | Number of Kohn-Sham states (occupied + empty):      114
------------------------------------------------------------

------------------------------------------------------------
          Preparing all fixed parts of the calculation.
------------------------------------------------------------
  Determining machine precision:
     2.2250738585072014E-308
  Setting up grids for atomic and cluster calculations.

  Creating wave function, potential, and density for free atoms.
  Runtime choices for atomic solver:
  | atomic solver xc        : PBE
  | compute density gradient: 1
  | compute kinetic density : F

  Species: B

  List of occupied orbitals and eigenvalues:
    n    l              occ      energy [Ha]    energy [eV]
    1    0           2.0000        -6.634628      -180.5374
    2    0           2.0000        -0.346865        -9.4387
    2    1           1.0000        -0.132618        -3.6087


  Species: N

  List of occupied orbitals and eigenvalues:
    n    l              occ      energy [Ha]    energy [eV]
    1    0           2.0000       -14.129248      -384.4764
    2    0           2.0000        -0.681982       -18.5577
    2    1           3.0000        -0.260725        -7.0947


  Adding cutoff potential to free-atom effective potential.
  Creating fixed part of basis set: Ionic, confined, hydrogenic.

  B                    Gaussian:

  List of cartesian Gaussian basis orbitals: 
    L    l
    0    0
    0    0
    0    0
    0    0
    0    0
    0    0
    0    0
    1    1
    1    1
    1    1
    1    1
    2    2
    2    2
    2    2
    3    3
    3    3
    4    4


  N                    Gaussian:

  List of cartesian Gaussian basis orbitals: 
    L    l
    0    0
    0    0
    0    0
    0    0
    0    0
    0    0
    0    0
    1    1
    1    1
    1    1
    1    1
    2    2
    2    2
    2    2
    3    3
    3    3
    4    4

  Creating atomic-like basis functions for current effective potential.
  Assembling full basis from fixed parts.
  | Species B : gaussian orbital   0 s accepted.
  | Species B : gaussian orbital   0 s accepted.
  | Species B : gaussian orbital   0 s accepted.
  | Species B : gaussian orbital   0 s accepted.
  | Species B : gaussian orbital   0 s accepted.
  | Species B : gaussian orbital   0 s accepted.
  | Species B : gaussian orbital   0 s accepted.
  | Species B : gaussian orbital   1 p accepted.
  | Species B : gaussian orbital   1 p accepted.
  | Species B : gaussian orbital   1 p accepted.
  | Species B : gaussian orbital   1 p accepted.
  | Species B : gaussian orbital   2 d accepted.
  | Species B : gaussian orbital   2 d accepted.
  | Species B : gaussian orbital   2 d accepted.
  | Species B : gaussian orbital   3 f accepted.
  | Species B : gaussian orbital   3 f accepted.
  | Species B : gaussian orbital   4 g accepted.
  | Species N : gaussian orbital   0 s accepted.
  | Species N : gaussian orbital   0 s accepted.
  | Species N : gaussian orbital   0 s accepted.
  | Species N : gaussian orbital   0 s accepted.
  | Species N : gaussian orbital   0 s accepted.
  | Species N : gaussian orbital   0 s accepted.
  | Species N : gaussian orbital   0 s accepted.
  | Species N : gaussian orbital   1 p accepted.
  | Species N : gaussian orbital   1 p accepted.
  | Species N : gaussian orbital   1 p accepted.
  | Species N : gaussian orbital   1 p accepted.
  | Species N : gaussian orbital   2 d accepted.
  | Species N : gaussian orbital   2 d accepted.
  | Species N : gaussian orbital   2 d accepted.
  | Species N : gaussian orbital   3 f accepted.
  | Species N : gaussian orbital   3 f accepted.
  | Species N : gaussian orbital   4 g accepted.

  Basis size parameters after reduction:
  | Total number of radial functions:       34
  | Total number of basis functions :      114

  Per-task memory consumption for arrays in subroutine allocate_ext:
  |           8.425712MB.
  Testing on-site integration grid accuracy.
  |  Species  Function  <phi|h_atom|phi> (log., in eV)  <phi|h_atom|phi> (rad., in eV)
           1        1               -115.8372044508               -115.7008080115 ***
           1        2               2333.2037441388               2336.2569253454 ***
           1        3                360.4789780708                360.6235057758 ***
           1        4                364.5058421083                364.7105009424 ***
           1        5                140.3596595463                140.4258460277 ***
           1        6                 70.5084516718                 70.5354762940
           1        7                 33.2343234797                 33.2447901774
           1        8                  7.7038855397                  7.7038838973
           1        9                 22.2189676602                 22.2189671928
           1       10                 17.3166215746                 17.3166212985
           1       11                 10.2538731571                 10.2538731411
           1       12                 64.0617343121                 64.0617328887
           1       13                 45.0288456108                 45.0288440371
           1       14                 23.2495511452                 23.2495506038
           1       15                 81.5603861625                 81.5603859394
           1       16                 43.6375894934                 43.6375892366
           1       17                 84.0673700096                 84.0673686845
           2       18               -264.5432893548               -263.9874535444 ***
           2       19               4367.3376942285               4378.6605423972 ***
           2       20                767.2749457774                767.9763632697 ***
           2       21                745.8006287945                746.6455314919 ***
           2       22                319.1237821340                319.4236476998 ***
           2       23                156.3503127390                156.4694003719 ***
           2       24                 71.3421222579                 71.3866879929 ***
           2       25                 15.7260725604                 15.7260734300
           2       26                 51.6176422071                 51.6176426430
           2       27                 39.5162519506                 39.5162516000
           2       28                 22.2520683051                 22.2520679855
           2       29                164.9661756018                164.9661764630
           2       30                109.1162417096                109.1162398341
           2       31                 53.8279305948                 53.8279296251
           2       32                189.2678310708                189.2678301114
           2       33                 96.9312577942                 96.9312583994
           2       34                180.8261710897                180.8261701237
 * Note: Onsite integrals marked "***" above are less accurate than
 * onsite_accuracy_threshold =    0.03000 eV. Usually, this is harmless.
 * However, one integral did have a negative value. This integral could be important.
 * When in doubt, tighten the "radial" and/or "radial_multiplier" flags to check.

  Preparing densities etc. for the partition functions (integrals / Hartree potential).

  Preparations completed.
  max(cpu_time)          :      0.166 s.
  Wall clock time (cpu1) :      0.180 s.
------------------------------------------------------------

  Initializing index lists of integration centers etc. from given atomic structure:
  | Number of centers in hartree potential         :         2
  | Number of centers in hartree multipole         :         2
  | Number of centers in electron density summation:         2
  | Number of centers in basis integrals           :         2
  | Number of centers in integrals                 :         2
  | Number of centers in hamiltonian               :         2

------------------------------------------------------------
          Begin self-consistency loop: Initialization.

          Date     :  20240515, Time     :  123126.854
------------------------------------------------------------
  * Using 128 tasks for Scalapack Eigenvalue solver.
  Detailed listing of tasks and assigned k-points:
  (for non-periodic systems, the "k-point" denotes an internal label only)
   Task     0 k-point     1 on n2cn0167.ab2021.local
   Task     1 k-point     1 on n2cn0167.ab2021.local
   Task     2 k-point     1 on n2cn0167.ab2021.local
   Task     3 k-point     1 on n2cn0167.ab2021.local
   Task     4 k-point     1 on n2cn0167.ab2021.local
   Task     5 k-point     1 on n2cn0167.ab2021.local
   Task     6 k-point     1 on n2cn0167.ab2021.local
   Task     7 k-point     1 on n2cn0167.ab2021.local
   Task     8 k-point     1 on n2cn0167.ab2021.local
   Task     9 k-point     1 on n2cn0167.ab2021.local
   Task    10 k-point     1 on n2cn0167.ab2021.local
   Task    11 k-point     1 on n2cn0167.ab2021.local
   Task    12 k-point     1 on n2cn0167.ab2021.local
   Task    13 k-point     1 on n2cn0167.ab2021.local
   Task    14 k-point     1 on n2cn0167.ab2021.local
   Task    15 k-point     1 on n2cn0167.ab2021.local
   Task    16 k-point     1 on n2cn0167.ab2021.local
   Task    17 k-point     1 on n2cn0167.ab2021.local
   Task    18 k-point     1 on n2cn0167.ab2021.local
   Task    19 k-point     1 on n2cn0167.ab2021.local
   Task    20 k-point     1 on n2cn0167.ab2021.local
   Task    21 k-point     1 on n2cn0167.ab2021.local
   Task    22 k-point     1 on n2cn0167.ab2021.local
   Task    23 k-point     1 on n2cn0167.ab2021.local
   Task    24 k-point     1 on n2cn0167.ab2021.local
   Task    25 k-point     1 on n2cn0167.ab2021.local
   Task    26 k-point     1 on n2cn0167.ab2021.local
   Task    27 k-point     1 on n2cn0167.ab2021.local
   Task    28 k-point     1 on n2cn0167.ab2021.local
   Task    29 k-point     1 on n2cn0167.ab2021.local
   Task    30 k-point     1 on n2cn0167.ab2021.local
   Task    31 k-point     1 on n2cn0167.ab2021.local
   Task    32 k-point     1 on n2cn0167.ab2021.local
   Task    33 k-point     1 on n2cn0167.ab2021.local
   Task    34 k-point     1 on n2cn0167.ab2021.local
   Task    35 k-point     1 on n2cn0167.ab2021.local
   Task    36 k-point     1 on n2cn0167.ab2021.local
   Task    37 k-point     1 on n2cn0167.ab2021.local
   Task    38 k-point     1 on n2cn0167.ab2021.local
   Task    39 k-point     1 on n2cn0167.ab2021.local
   Task    40 k-point     1 on n2cn0167.ab2021.local
   Task    41 k-point     1 on n2cn0167.ab2021.local
   Task    42 k-point     1 on n2cn0167.ab2021.local
   Task    43 k-point     1 on n2cn0167.ab2021.local
   Task    44 k-point     1 on n2cn0167.ab2021.local
   Task    45 k-point     1 on n2cn0167.ab2021.local
   Task    46 k-point     1 on n2cn0167.ab2021.local
   Task    47 k-point     1 on n2cn0167.ab2021.local
   Task    48 k-point     1 on n2cn0167.ab2021.local
   Task    49 k-point     1 on n2cn0167.ab2021.local
   Task    50 k-point     1 on n2cn0167.ab2021.local
   Task    51 k-point     1 on n2cn0167.ab2021.local
   Task    52 k-point     1 on n2cn0167.ab2021.local
   Task    53 k-point     1 on n2cn0167.ab2021.local
   Task    54 k-point     1 on n2cn0167.ab2021.local
   Task    55 k-point     1 on n2cn0167.ab2021.local
   Task    56 k-point     1 on n2cn0167.ab2021.local
   Task    57 k-point     1 on n2cn0167.ab2021.local
   Task    58 k-point     1 on n2cn0167.ab2021.local
   Task    59 k-point     1 on n2cn0167.ab2021.local
   Task    60 k-point     1 on n2cn0167.ab2021.local
   Task    61 k-point     1 on n2cn0167.ab2021.local
   Task    62 k-point     1 on n2cn0167.ab2021.local
   Task    63 k-point     1 on n2cn0167.ab2021.local
   Task    64 k-point     1 on n2cn0167.ab2021.local
   Task    65 k-point     1 on n2cn0167.ab2021.local
   Task    66 k-point     1 on n2cn0167.ab2021.local
   Task    67 k-point     1 on n2cn0167.ab2021.local
   Task    68 k-point     1 on n2cn0167.ab2021.local
   Task    69 k-point     1 on n2cn0167.ab2021.local
   Task    70 k-point     1 on n2cn0167.ab2021.local
   Task    71 k-point     1 on n2cn0167.ab2021.local
   Task    72 k-point     1 on n2cn0167.ab2021.local
   Task    73 k-point     1 on n2cn0167.ab2021.local
   Task    74 k-point     1 on n2cn0167.ab2021.local
   Task    75 k-point     1 on n2cn0167.ab2021.local
   Task    76 k-point     1 on n2cn0167.ab2021.local
   Task    77 k-point     1 on n2cn0167.ab2021.local
   Task    78 k-point     1 on n2cn0167.ab2021.local
   Task    79 k-point     1 on n2cn0167.ab2021.local
   Task    80 k-point     1 on n2cn0167.ab2021.local
   Task    81 k-point     1 on n2cn0167.ab2021.local
   Task    82 k-point     1 on n2cn0167.ab2021.local
   Task    83 k-point     1 on n2cn0167.ab2021.local
   Task    84 k-point     1 on n2cn0167.ab2021.local
   Task    85 k-point     1 on n2cn0167.ab2021.local
   Task    86 k-point     1 on n2cn0167.ab2021.local
   Task    87 k-point     1 on n2cn0167.ab2021.local
   Task    88 k-point     1 on n2cn0167.ab2021.local
   Task    89 k-point     1 on n2cn0167.ab2021.local
   Task    90 k-point     1 on n2cn0167.ab2021.local
   Task    91 k-point     1 on n2cn0167.ab2021.local
   Task    92 k-point     1 on n2cn0167.ab2021.local
   Task    93 k-point     1 on n2cn0167.ab2021.local
   Task    94 k-point     1 on n2cn0167.ab2021.local
   Task    95 k-point     1 on n2cn0167.ab2021.local
   Task    96 k-point     1 on n2cn0167.ab2021.local
   Task    97 k-point     1 on n2cn0167.ab2021.local
   Task    98 k-point     1 on n2cn0167.ab2021.local
   Task    99 k-point     1 on n2cn0167.ab2021.local
   Task   100 k-point     1 on n2cn0167.ab2021.local
   Task   101 k-point     1 on n2cn0167.ab2021.local
   Task   102 k-point     1 on n2cn0167.ab2021.local
   Task   103 k-point     1 on n2cn0167.ab2021.local
   Task   104 k-point     1 on n2cn0167.ab2021.local
   Task   105 k-point     1 on n2cn0167.ab2021.local
   Task   106 k-point     1 on n2cn0167.ab2021.local
   Task   107 k-point     1 on n2cn0167.ab2021.local
   Task   108 k-point     1 on n2cn0167.ab2021.local
   Task   109 k-point     1 on n2cn0167.ab2021.local
   Task   110 k-point     1 on n2cn0167.ab2021.local
   Task   111 k-point     1 on n2cn0167.ab2021.local
   Task   112 k-point     1 on n2cn0167.ab2021.local
   Task   113 k-point     1 on n2cn0167.ab2021.local
   Task   114 k-point     1 on n2cn0167.ab2021.local
   Task   115 k-point     1 on n2cn0167.ab2021.local
   Task   116 k-point     1 on n2cn0167.ab2021.local
   Task   117 k-point     1 on n2cn0167.ab2021.local
   Task   118 k-point     1 on n2cn0167.ab2021.local
   Task   119 k-point     1 on n2cn0167.ab2021.local
   Task   120 k-point     1 on n2cn0167.ab2021.local
   Task   121 k-point     1 on n2cn0167.ab2021.local
   Task   122 k-point     1 on n2cn0167.ab2021.local
   Task   123 k-point     1 on n2cn0167.ab2021.local
   Task   124 k-point     1 on n2cn0167.ab2021.local
   Task   125 k-point     1 on n2cn0167.ab2021.local
   Task   126 k-point     1 on n2cn0167.ab2021.local
   Task   127 k-point     1 on n2cn0167.ab2021.local
  Tasks:   128 split into     16 X      8 BLACS grid
  Calculating block size based on n_basis =          114  max_nprow =           16  max_npcol =            8
  ScaLAPACK block size set to:            4
  Allocating        0.001 MB for ovlp
  Allocating        0.001 MB for ham
  Allocating        0.001 MB for eigenvec
  Required Scalapack workspace - INTEGER:          864  REAL:          1169
  Partitioning the integration grid into batches with parallel hashing+maxmin method.
  | Number of batches:      680
  | Maximal batch size:     186
  | Minimal batch size:       3
  | Average batch size:      80.306
  | Standard deviation of batch sizes:      29.253

  Integration load balanced across   128 MPI tasks.
  Work distribution over tasks is as follows:
  Task     0 has        444 integration points.
  Task     1 has        422 integration points.
  Task     2 has        442 integration points.
  Task     3 has        415 integration points.
  Task     4 has        405 integration points.
  Task     5 has        506 integration points.
  Task     6 has        424 integration points.
  Task     7 has        503 integration points.
  Task     8 has        489 integration points.
  Task     9 has        433 integration points.
  Task    10 has        411 integration points.
  Task    11 has        424 integration points.
  Task    12 has        408 integration points.
  Task    13 has        411 integration points.
  Task    14 has        408 integration points.
  Task    15 has        462 integration points.
  Task    16 has        404 integration points.
  Task    17 has        429 integration points.
  Task    18 has        439 integration points.
  Task    19 has        405 integration points.
  Task    20 has        404 integration points.
  Task    21 has        409 integration points.
  Task    22 has        413 integration points.
  Task    23 has        507 integration points.
  Task    24 has        416 integration points.
  Task    25 has        408 integration points.
  Task    26 has        427 integration points.
  Task    27 has        440 integration points.
  Task    28 has        412 integration points.
  Task    29 has        413 integration points.
  Task    30 has        404 integration points.
  Task    31 has        433 integration points.
  Task    32 has        413 integration points.
  Task    33 has        411 integration points.
  Task    34 has        415 integration points.
  Task    35 has        419 integration points.
  Task    36 has        420 integration points.
  Task    37 has        418 integration points.
  Task    38 has        418 integration points.
  Task    39 has        512 integration points.
  Task    40 has        413 integration points.
  Task    41 has        416 integration points.
  Task    42 has        404 integration points.
  Task    43 has        406 integration points.
  Task    44 has        404 integration points.
  Task    45 has        410 integration points.
  Task    46 has        412 integration points.
  Task    47 has        407 integration points.
  Task    48 has        406 integration points.
  Task    49 has        431 integration points.
  Task    50 has        427 integration points.
  Task    51 has        405 integration points.
  Task    52 has        435 integration points.
  Task    53 has        434 integration points.
  Task    54 has        443 integration points.
  Task    55 has        409 integration points.
  Task    56 has        425 integration points.
  Task    57 has        411 integration points.
  Task    58 has        438 integration points.
  Task    59 has        459 integration points.
  Task    60 has        409 integration points.
  Task    61 has        428 integration points.
  Task    62 has        409 integration points.
  Task    63 has        406 integration points.
  Task    64 has        406 integration points.
  Task    65 has        427 integration points.
  Task    66 has        445 integration points.
  Task    67 has        527 integration points.
  Task    68 has        405 integration points.
  Task    69 has        406 integration points.
  Task    70 has        412 integration points.
  Task    71 has        433 integration points.
  Task    72 has        447 integration points.
  Task    73 has        437 integration points.
  Task    74 has        423 integration points.
  Task    75 has        509 integration points.
  Task    76 has        413 integration points.
  Task    77 has        414 integration points.
  Task    78 has        408 integration points.
  Task    79 has        407 integration points.
  Task    80 has        504 integration points.
  Task    81 has        414 integration points.
  Task    82 has        408 integration points.
  Task    83 has        411 integration points.
  Task    84 has        405 integration points.
  Task    85 has        410 integration points.
  Task    86 has        408 integration points.
  Task    87 has        439 integration points.
  Task    88 has        405 integration points.
  Task    89 has        420 integration points.
  Task    90 has        408 integration points.
  Task    91 has        407 integration points.
  Task    92 has        508 integration points.
  Task    93 has        409 integration points.
  Task    94 has        411 integration points.
  Task    95 has        407 integration points.
  Task    96 has        508 integration points.
  Task    97 has        427 integration points.
  Task    98 has        405 integration points.
  Task    99 has        403 integration points.
  Task   100 has        406 integration points.
  Task   101 has        409 integration points.
  Task   102 has        412 integration points.
  Task   103 has        520 integration points.
  Task   104 has        412 integration points.
  Task   105 has        414 integration points.
  Task   106 has        412 integration points.
  Task   107 has        407 integration points.
  Task   108 has        404 integration points.
  Task   109 has        405 integration points.
  Task   110 has        409 integration points.
  Task   111 has        516 integration points.
  Task   112 has        510 integration points.
  Task   113 has        407 integration points.
  Task   114 has        411 integration points.
  Task   115 has        410 integration points.
  Task   116 has        407 integration points.
  Task   117 has        404 integration points.
  Task   118 has        410 integration points.
  Task   119 has        444 integration points.
  Task   120 has        415 integration points.
  Task   121 has        421 integration points.
  Task   122 has        429 integration points.
  Task   123 has        406 integration points.
  Task   124 has        408 integration points.
  Task   125 has        409 integration points.
  Task   126 has        413 integration points.
  Task   127 has        499 integration points.
  Initializing partition tables, free-atom densities, potentials, etc. across the integration grid (initialize_grid_storage).
  | Net number of integration points:    54608
  | of which are non-zero points    :    54608
  Renormalizing the initial density to the exact electron count on the 3D integration grid.
  | Initial density: Formal number of electrons (from input files) :      12.0000000000
  | Integrated number of electrons on 3D grid     :      11.9999999294
  | Charge integration error                      :      -0.0000000706
  | Normalization factor for density and gradient :       1.0000000059
  Renormalizing the free-atom superposition density to the exact electron count on the 3D integration grid.
  | Formal number of electrons (from input files) :      12.0000000000
  | Integrated number of electrons on 3D grid     :      11.9999999294
  | Charge integration error                      :      -0.0000000706
  | Normalization factor for density and gradient :       1.0000000059
  Obtaining max. number of non-zero basis functions in each batch (get_n_compute_maxes).
  | Maximal number of non-zero basis functions:      111 in task     0
  | Maximal number of non-zero basis functions:      111 in task     1
  | Maximal number of non-zero basis functions:      111 in task     2
  | Maximal number of non-zero basis functions:      112 in task     3
  | Maximal number of non-zero basis functions:      111 in task     4
  | Maximal number of non-zero basis functions:      112 in task     5
  | Maximal number of non-zero basis functions:      112 in task     6
  | Maximal number of non-zero basis functions:      112 in task     7
  | Maximal number of non-zero basis functions:      112 in task     8
  | Maximal number of non-zero basis functions:      112 in task     9
  | Maximal number of non-zero basis functions:      111 in task    10
  | Maximal number of non-zero basis functions:      111 in task    11
  | Maximal number of non-zero basis functions:      112 in task    12
  | Maximal number of non-zero basis functions:      112 in task    13
  | Maximal number of non-zero basis functions:      112 in task    14
  | Maximal number of non-zero basis functions:      111 in task    15
  | Maximal number of non-zero basis functions:      113 in task    16
  | Maximal number of non-zero basis functions:      107 in task    17
  | Maximal number of non-zero basis functions:      114 in task    18
  | Maximal number of non-zero basis functions:      114 in task    19
  | Maximal number of non-zero basis functions:      112 in task    20
  | Maximal number of non-zero basis functions:      111 in task    21
  | Maximal number of non-zero basis functions:      112 in task    22
  | Maximal number of non-zero basis functions:      111 in task    23
  | Maximal number of non-zero basis functions:      112 in task    24
  | Maximal number of non-zero basis functions:      112 in task    25
  | Maximal number of non-zero basis functions:      111 in task    26
  | Maximal number of non-zero basis functions:      111 in task    27
  | Maximal number of non-zero basis functions:      111 in task    28
  | Maximal number of non-zero basis functions:      111 in task    29
  | Maximal number of non-zero basis functions:      112 in task    30
  | Maximal number of non-zero basis functions:      114 in task    31
  | Maximal number of non-zero basis functions:      111 in task    32
  | Maximal number of non-zero basis functions:      110 in task    33
  | Maximal number of non-zero basis functions:      111 in task    34
  | Maximal number of non-zero basis functions:      111 in task    35
  | Maximal number of non-zero basis functions:      111 in task    36
  | Maximal number of non-zero basis functions:      111 in task    37
  | Maximal number of non-zero basis functions:      111 in task    38
  | Maximal number of non-zero basis functions:      108 in task    39
  | Maximal number of non-zero basis functions:      108 in task    40
  | Maximal number of non-zero basis functions:      107 in task    41
  | Maximal number of non-zero basis functions:      114 in task    42
  | Maximal number of non-zero basis functions:      112 in task    43
  | Maximal number of non-zero basis functions:      112 in task    44
  | Maximal number of non-zero basis functions:      112 in task    45
  | Maximal number of non-zero basis functions:      111 in task    46
  | Maximal number of non-zero basis functions:      112 in task    47
  | Maximal number of non-zero basis functions:      112 in task    48
  | Maximal number of non-zero basis functions:      112 in task    49
  | Maximal number of non-zero basis functions:      112 in task    50
  | Maximal number of non-zero basis functions:      110 in task    51
  | Maximal number of non-zero basis functions:      108 in task    52
  | Maximal number of non-zero basis functions:      110 in task    53
  | Maximal number of non-zero basis functions:      114 in task    54
  | Maximal number of non-zero basis functions:      111 in task    55
  | Maximal number of non-zero basis functions:      109 in task    56
  | Maximal number of non-zero basis functions:      114 in task    57
  | Maximal number of non-zero basis functions:      114 in task    58
  | Maximal number of non-zero basis functions:       71 in task    59
  | Maximal number of non-zero basis functions:      112 in task    60
  | Maximal number of non-zero basis functions:      111 in task    61
  | Maximal number of non-zero basis functions:      114 in task    62
  | Maximal number of non-zero basis functions:      114 in task    63
  | Maximal number of non-zero basis functions:      114 in task    64
  | Maximal number of non-zero basis functions:      110 in task    65
  | Maximal number of non-zero basis functions:      111 in task    66
  | Maximal number of non-zero basis functions:      112 in task    67
  | Maximal number of non-zero basis functions:      112 in task    68
  | Maximal number of non-zero basis functions:      112 in task    69
  | Maximal number of non-zero basis functions:      111 in task    70
  | Maximal number of non-zero basis functions:      101 in task    71
  | Maximal number of non-zero basis functions:      110 in task    72
  | Maximal number of non-zero basis functions:      112 in task    73
  | Maximal number of non-zero basis functions:      109 in task    74
  | Maximal number of non-zero basis functions:      111 in task    75
  | Maximal number of non-zero basis functions:      112 in task    76
  | Maximal number of non-zero basis functions:      112 in task    77
  | Maximal number of non-zero basis functions:      112 in task    78
  | Maximal number of non-zero basis functions:      112 in task    79
  | Maximal number of non-zero basis functions:      112 in task    80
  | Maximal number of non-zero basis functions:      113 in task    81
  | Maximal number of non-zero basis functions:      112 in task    82
  | Maximal number of non-zero basis functions:      114 in task    83
  | Maximal number of non-zero basis functions:      114 in task    84
  | Maximal number of non-zero basis functions:      112 in task    85
  | Maximal number of non-zero basis functions:      112 in task    86
  | Maximal number of non-zero basis functions:      108 in task    87
  | Maximal number of non-zero basis functions:      112 in task    88
  | Maximal number of non-zero basis functions:      110 in task    89
  | Maximal number of non-zero basis functions:      111 in task    90
  | Maximal number of non-zero basis functions:      114 in task    91
  | Maximal number of non-zero basis functions:      112 in task    92
  | Maximal number of non-zero basis functions:      111 in task    93
  | Maximal number of non-zero basis functions:      111 in task    94
  | Maximal number of non-zero basis functions:      112 in task    95
  | Maximal number of non-zero basis functions:      111 in task    96
  | Maximal number of non-zero basis functions:      111 in task    97
[...]
      11    0.0000        1.7326       -1.1373       -3.9665       -1.0186        3.5432
      12    0.0000        2.0855       -1.0832       -3.5958       -0.6997        3.8984
      13    0.0000        2.0855       -1.0832       -3.5958       -0.6997        3.8984
      14    0.0000        5.5660       -1.2900       -4.8190       -1.3686        7.7263
      15    0.0000        7.1050       -1.1794       -5.0097       -0.9469        9.9883
      16    0.0000        7.1050       -1.1794       -5.0097       -0.9469        9.9883
      17    0.0000        7.1789       -1.8402       -5.5763       -1.4044        9.5106
      18    0.0000        7.1789       -1.8402       -5.5763       -1.4732        9.4417
      19    0.0000        8.0942       -1.8734       -5.8169       -1.4312       10.6065
      20    0.0000       10.0755       -1.1338       -5.1235       -0.8896       13.1757
      21    0.0000       10.0755       -1.1338       -5.1235       -0.8762       13.1891
      22    0.0000       11.0517       -0.8300       -4.6033       -2.0526       12.7723
      23    0.0000       12.4315       -1.3668       -6.0575       -1.7616       15.3606
      24    0.0000       12.4315       -1.3668       -6.0575       -1.8871       15.2351
      25    0.0000       14.0214       -2.2807       -6.7377       -1.7226       16.7558
      26    0.0000       17.4665       -4.3826      -12.2778       -3.0862       22.2755
      27    0.0000       21.3277       -2.5719       -8.7565       -2.2588       25.2535
      28    0.0000       21.3277       -2.5719       -8.7565       -2.3756       25.1367
      29    0.0000       24.5328       -2.8781       -9.0246       -2.3833       28.2960
      30    0.0000       26.2808       -2.3651       -8.8328       -2.0016       30.7470
      31    0.0000       26.2808       -2.3651       -8.8328       -1.9528       30.7957
      32    0.0000       27.5563       -0.8314       -6.7064       -1.3563       32.0749
      33    0.0000       27.5563       -0.8314       -6.7064       -1.7861       31.6451
      34    0.0000       28.8280       -1.5220       -8.3594       -2.7612       32.9042
      35    0.0000       28.8280       -1.5220       -8.3593       -2.7177       32.9477
      36    0.0000       29.0752       -2.4238       -9.4235       -3.3398       32.7351
      37    0.0000       29.0752       -2.4238       -9.4235       -3.2303       32.8445
      38    0.0000       30.8211       -1.0667       -7.1669       -1.2978       35.6234
      39    0.0000       33.0017       -2.2107       -8.6445       -2.2422       37.1934
      40    0.0000       33.3132       -1.7310       -8.8373       -2.7731       37.6464
      41    0.0000       33.3132       -1.7310       -8.8373       -2.8826       37.5369
      42    0.0000       33.4120       -1.0923       -7.5084       -1.1356       38.6925
      43    0.0000       33.4120       -1.0923       -7.5084       -1.2040       38.6241
      44    0.0000       39.1335       -2.5171      -10.1101       -2.8167       43.9098
      45    0.0000       41.0388       -2.0850       -9.9069       -2.6368       46.2239
      46    0.0000       41.0388       -2.0850       -9.9069       -2.6841       46.1766
      47    0.0000       43.5452       -3.4034      -12.1388       -2.9717       49.3089
      48    0.0000       51.2348       -2.9568      -12.4863       -2.6390       58.1253
      49    0.0000       51.2348       -2.9568      -12.4863       -2.6725       58.0917
      50    0.0000       60.0917       -2.8360      -12.5916       -2.1294       67.7179
      51    0.0000       65.0660       -1.9477      -11.6096       -1.8082       72.9198
      52    0.0000       65.0660       -1.9477      -11.6096       -1.3471       73.3809
      53    0.0000       70.0230       -3.2350      -13.9277       -3.4102       77.3056
      54    0.0000       70.0230       -3.2350      -13.9277       -3.4199       77.2958
      55    0.0000       70.7685       -3.6064      -13.8198       -2.4095       78.5724
      56    0.0000       75.3013       -3.3908      -14.6221       -4.8365       81.6962
      57    0.0000       75.3013       -3.3908      -14.6221       -4.4308       82.1018
      58    0.0000       79.1339       -2.5833      -13.4205       -3.7110       86.2601
      59    0.0000       79.1339       -2.5833      -13.4205       -3.6344       86.3368
      60    0.0000       84.1773       -0.7817       -9.7060       -1.6827       91.4189
      61    0.0000       84.1773       -0.7817       -9.7060       -1.6844       91.4172
      62    0.0000       85.5227       -3.3727      -14.5470       -2.9829       93.7140
      63    0.0000       87.8252       -1.4354      -10.9099       -2.6531       94.6466
      64    0.0000       87.8252       -1.4354      -10.9099       -2.6755       94.6242
      65    0.0000       89.2386       -0.9369      -10.3014       -1.8680       96.7352
      66    0.0000       89.2386       -0.9369      -10.3014       -1.4215       97.1816
      67    0.0000       94.8750       -1.0748      -10.9322       -3.9902      100.7421
      68    0.0000       94.8752       -1.0748      -10.9321       -4.0877      100.6448
      69    0.0000       96.6110       -1.2595      -11.1434       -2.2694      104.2254
      70    0.0000       96.6110       -1.2595      -11.1434       -2.6582      103.8366
      71    0.0000       96.9639       -1.2781      -11.5225       -3.3288      103.8794
      72    0.0000       96.9640       -1.2782      -11.5230       -3.3877      103.8211
      73    0.0000       97.0756       -1.4303      -10.7930       -1.7961      104.6422
      74    0.0000       97.6155       -1.1600      -11.5014       -3.9258      104.0310
      75    0.0000       97.6155       -1.1600      -11.5014       -3.4868      104.4700
      76    0.0000       99.2489       -2.4727      -13.4466       -0.4011      109.8217
      77    0.0000      104.0407       -5.4030      -19.8580       -9.9113      108.5844
      78    0.0000      104.0407       -5.4030      -19.8580       -6.4312      112.0645
      79    0.0000      108.3014       -1.3962      -12.2111       -2.7247      116.3915
      80    0.0000      108.3014       -1.3962      -12.2111       -2.8050      116.3112
      81    0.0000      110.9141       -3.5617      -16.0208       -1.2359      122.1374
      82    0.0000      111.1746       -1.3444      -12.2427       -1.8089      120.2640
      83    0.0000      111.1746       -1.3444      -12.2427       -0.0520      122.0209
      84    0.0000      117.0870       -4.2177      -16.7513       -4.6926      124.9279
      85    0.0000      139.9644       -4.7808      -19.9776       -3.8890      151.2722
      86    0.0000      148.5050       -2.4668      -15.5432       -0.4357      161.1457
      87    0.0000      148.5050       -2.4668      -15.5432       -0.3686      161.2129
      88    0.0000      168.2494       -3.8272      -16.8559       -0.6861      180.5920
      89    0.0000      183.2553       -1.7881      -16.0206       -2.2781      195.2097
      90    0.0000      183.2553       -1.7881      -16.0206       -2.2377      195.2502
      91    0.0000      188.8441       -1.8015      -16.2125       -1.8800      201.3751
      92    0.0000      188.8441       -1.8015      -16.2125       -1.8238      201.4313
      93    0.0000      203.6684       -1.9350      -16.8643       -2.5308      216.0669
      94    0.0000      203.6684       -1.9350      -16.8643       -1.8575      216.7402
      95    0.0000      205.9242       -2.1756      -17.4215       -2.7450      218.4250
      96    0.0000      205.9242       -2.1756      -17.4215       -2.8328      218.3373
      97    0.0000      208.2288       -2.6901      -18.2441       -2.2817      221.5011
      98    0.0000      227.1867       -2.5217      -19.2541       -5.1095      238.8096
      99    0.0000      227.1867       -2.5217      -19.2541       -5.0089      238.9103
     100    0.0000      235.7969       -2.3006      -18.8236       -4.7136      247.6063
     101    0.0000      235.7970       -2.3006      -18.8236       -5.2362      247.0838
     102    0.0000      244.5514       -3.1688      -21.0650       -6.4793      255.9683
     103    0.0000      244.5520       -3.1688      -21.0652       -6.1961      256.2521
     104    0.0000      244.5965       -2.2430      -18.8635       -5.5890      255.6280
     105    0.0000      244.5965       -2.2430      -18.8635       -5.5950      255.6220
     106    0.0000      245.6863       -3.8438      -20.9841       -3.9865      258.8401
     107    0.0000      264.5110       -3.2702      -21.3628       -3.4407      279.1629
     108    0.0000      268.9864       -2.7758      -20.4392       -9.6775      276.9723
     109    0.0000      268.9864       -2.7758      -20.4392       -6.5098      280.1400
     110    0.0000      292.5072       -7.6596      -26.5288       -6.6674      304.7091
     111    0.0000      519.3249      -10.7003      -37.8589       -2.4419      544.0417
     112    0.0000     1000.8977      -15.6324      -54.2158       -2.4885     1036.9926
     113    0.0000     2767.9274      -12.2388      -78.3719        1.0352     2835.0957
     114    0.0000     5337.5098      -17.8686     -110.5265       -8.4550     5421.7126
----------------------------------------------------------------------------------------

   DFT/Hartree-Fock HOMO level (eV):    -7.4549   -7.4549

   Quasiparticle HOMO level (eV):      -11.0619  -11.0619
----------------------------------------------------------------------------------------

  Printing out the self-energy matrix element:  6 for spin  1

------------------------------------------------------------------------------------------------------

  Start calculating the spectral function for state:  6

------------------------------------------------------------------------------------------------------

          | Total time for transforming the 3-center integrals :        0.164 s
          | Total time for calculating the exchange-correlation
                                  energy matrix elements   :        0.012 s
          | Total time for calculating polarisability     
                        for imaginary frequencies          :        4.500 s
          | Total time for calculating self energy 
                        on imaginary frequency axis        :       37.124 s
          | Total time for calculating the quasiparticle 
                  energies with analytic continuation      :        0.017 s
          | Total time for calculating the quasiparticle 
                  energies with contour deformation        :      121.469 s

------------------------------------------------------------------------------
  Final output of selected total energy values:

  The following output summarizes some interesting total energy values
  at the end of a run (AFTER all relaxation, molecular dynamics, etc.).

  | Total energy of the DFT / Hartree-Fock s.c.f. calculation      :          -2158.039342217 eV
  | Final zero-broadening corrected energy (caution - metals only) :          -2158.039342217 eV
  | For reference only, the value of 1 Hartree used in FHI-aims is :             27.211384500 eV

  Before relying on these values, please be sure to understand exactly which
  total energy value is referred to by a given number. Different objects may
  all carry the same name 'total energy'. Definitions:

  Total energy of the DFT / Hartree-Fock s.c.f. calculation:
  | Note that this energy does not include ANY quantities calculated after the
  | s.c.f. cycle, in particular not ANY RPA, MP2, etc. many-body perturbation terms.

  Final zero-broadening corrected energy:
  | For metallic systems only, a broadening of the occupation numbers at the Fermi
  | level can be extrapolated back to zero broadening by an electron-gas inspired
  | formula. For all systems that are not real metals, this value can be
  | meaningless and should be avoided.

------------------------------------------------------------------------------
  Methods described in the following list of references were used in this FHI-aims run.
  If you publish the results, please make sure to cite these reference if they apply.
  FHI-aims is an academic code, and for our developers (often, Ph.D. students
  and postdocs), scientific credit in the community is essential.
  Thank you for helping us!

  For any use of FHI-aims, please cite:

    Volker Blum, Ralf Gehrke, Felix Hanke, Paula Havu, Ville Havu,
    Xinguo Ren, Karsten Reuter, and Matthias Scheffler
    'Ab initio molecular simulations with numeric atom-centered orbitals'
    Computer Physics Communications 180, 2175-2196 (2009)
    http://doi.org/10.1016/j.cpc.2009.06.022


  For Hartree-Fock, hybrid functionals, or many-body perturbation theory used in your run, please cite:

    Xinguo Ren, Patrick Rinke, Volker Blum, Juergen Wieferink, Alex Tkatchenko,
    Andrea Sanfilippo, Karsten Reuter, and Matthias Scheffler,
    'Resolution-of-identity approach to Hartree-Fock, hybrid density functionals,
    RPA, MP2, and GW with numeric atom-centered orbital basis functions'
    New Journal of Physics 14, 053020 (2012).
    http://doi.org/10.1088/1367-2630/14/5/053020


  The ELSI infrastructure was used in your run to solve the Kohn-Sham electronic structure.
  Please check out http://elsi-interchange.org to learn more.
  If scalability is important for your project, please acknowledge ELSI by citing:

    V. W-z. Yu, F. Corsetti, A. Garcia, W. P. Huhn, M. Jacquelin, W. Jia,
    B. Lange, L. Lin, J. Lu, W. Mi, A. Seifitokaldani, A. Vazquez-Mayagoitia,
    C. Yang, H. Yang, and V. Blum
    'ELSI: A unified software interface for Kohn-Sham electronic structure solvers'
    Computer Physics Communications 222, 267-285 (2018).
    http://doi.org/10.1016/j.cpc.2017.09.007


  For the real-space grid partitioning and parallelization used in this calculation, please cite:

    Ville Havu, Volker Blum, Paula Havu, and Matthias Scheffler,
    'Efficient O(N) integration for all-electron electronic structure calculation'
    'using numerically tabulated basis functions'
    Journal of Computational Physics 228, 8367-8379 (2009).
    http://doi.org/10.1016/j.jcp.2009.08.008

  Of course, there are many other important community references, e.g., those cited in the
  above references. Our list is limited to references that describe implementations in the
  FHI-aims code. The reason is purely practical (length of this list) - please credit others as well.

 * A warning was issued further up regarding the accuracy of onsite integrals.
   An integral with a negative eigenvalue was among the flagged integrals.
   In most standard situations, this warning is probably harmless.
   If needed, this can be verified by adjusting the radial_multiplier flag.

 * Warning - angular integration grids had to be adjusted for use with RI_method 'V'.
 * Background: You are using an electronic structure method that requires RI_method 'V'
 * for the resolution of identity of the Coulomb operator. (See Ren et al.,
 * New J. Phys 2012 for details.) This method requires three-center integrations
 * to be carried out on FHI-aims' normal angular and radial integration grids.
 * (See FHI-aims CPC Blum et al. 2009, p. 2183 for grid details and references.)
 * One of the angular grids specified in your control.in file was not large
 * enough for the maximal angular momenta of orbital and product basis functions
 * for its species.
 * This can lead to atomic total energy errors which cancel in energy differences.
 * Effective Sep 22, 2014, we have changed the default behavior of the code to
 * simply 'upgrade' the angular grids internally to a safe setting in this case.
 * Please be sure to NOT mix total energies from before and after the change.

------------------------------------------------------------
          Leaving FHI-aims.
          Date     :  20240515, Time     :  123715.698

          Computational steps:
          | Number of self-consistency cycles          :           15
          | Number of SCF (re)initializations          :            1

          Detailed time accounting                     :  max(cpu_time)    wall_clock(cpu1)
          | Total time                                  :      345.360 s         349.795 s
          | Preparation time                            :        0.166 s           0.180 s
          | Boundary condition initalization            :        0.001 s           0.010 s
          | Grid partitioning                           :        0.101 s           0.102 s
          | Preloading free-atom quantities on grid     :        0.021 s           0.020 s
          | Free-atom superposition energy              :        0.025 s           0.025 s
          | Total time for integrations                 :        0.158 s           0.114 s
          | Product basis setup: Total time             :        0.000 s           0.000 s
          | Product basis: | 3-center integrations     :(       0.964 s)  (       0.967 s)
          | Product basis: | 2-center integrations     :(       0.089 s)  (       0.090 s)
          | Product basis: | 2-center linear algebra   :(       0.555 s)  (       0.562 s)
          | Product basis: | 3-center x 2-center       :(       0.463 s)  (       0.631 s)
          | Transforming ovlp_3fn to ovlp_3KS           :        0.164 s           0.167 s
          | Screened Coulomb matrix W_mn(iw)            :       41.327 s          41.601 s
          | Polarisability matrix Pi_PQ(iw)             :        4.500 s           4.500 s
          | Total time for GW calculation               :      336.973 s         340.749 s
          | GW self-energy (analytic cont.)             :       41.743 s          42.048 s
          | Contour def: | Solving qp equations         :      121.469 s         121.977 s
          | Contour def: | GW self-energy               :      293.888 s         294.742 s
          | Contour def: | Scr Coulomb matrix W_mn(w)   :      293.074 s         293.911 s
          | Contour def: | CD-WAC W_mn(w) and Pade      :        0.000 s           0.000 s
          | Contour def: | Scr aux Coulomb mat W_PQ(w)  :      219.270 s         219.772 s
          | Contour def: | Polarisability Pi_PQ(w)      :      116.009 s         115.534 s
          | Contour def: | Printing self-energy CD      :      168.159 s         168.996 s
          | Contour def: | Spectral function CD         :        5.394 s           7.377 s
          | Total time for solution of K.-S. equations  :        0.544 s           0.547 s
          | Total time for density update               :        0.355 s           0.357 s
          | Total time for mixing                       :        3.810 s           3.559 s
          | Total time for Hartree multipole update     :        0.147 s           0.145 s
          | Total time for Hartree multipole sum        :        0.136 s           0.142 s
          | Total time for total energy evaluation      :        0.008 s           0.005 s

          Partial memory accounting:
          | Residual value for overall tracked memory usage across tasks:     0.000000 MB (should be 0.000000 MB)
          | Peak values for overall tracked memory usage:
          |   Minimum:        0.900 MB (on task  59 after allocating gradient_basis_wave)
          |   Maximum:        1.327 MB (on task  18 after allocating gradient_basis_wave)
          |   Average:        1.298 MB
          | Largest tracked array allocation:
          |   Minimum:        0.302 MB (gradient_basis_wave on task  59)
          |   Maximum:        0.485 MB (gradient_basis_wave on task  18)
          |   Average:        0.474 MB
          Note:  These values currently only include a subset of arrays which are explicitly tracked.
          The "true" memory usage will be greater.

          Have a nice day.
------------------------------------------------------------
