 DBCSR| CPU Multiplication driver                                           XSMM (U)
 DBCSR| Multrec recursion limit                                              512 (U)
 DBCSR| Multiplication stack size                                           1000 (D)
 DBCSR| Maximum elements for images                                    UNLIMITED (U)
 DBCSR| Multiplicative factor virtual images                                   1 (U)
 DBCSR| Use multiplication densification                                       T (D)
 DBCSR| Multiplication size stacks                                             3 (U)
 DBCSR| Use memory pool for CPU allocation                                     F (U)
 DBCSR| Number of 3D layers                                               SINGLE (U)
 DBCSR| Use MPI memory allocation                                              F (U)
 DBCSR| Use RMA algorithm                                                      F (U)
 DBCSR| Use Communication thread                                               T (U)
 DBCSR| Communication thread load                                             87 (D)
 DBCSR| MPI: My process id                                                     0
 DBCSR| MPI: Number of processes                                               1
 DBCSR| OMP: Current number of threads                                         1
 DBCSR| OMP: Max number of threads                                             1
 DBCSR| Split modifier for TAS multiplication algorithm                  1.0E+00 (U)


  **** **** ******  **  PROGRAM STARTED AT               2024-05-14 12:54:33.338
 ***** ** ***  *** **   PROGRAM STARTED ON                           surface-mia
 **    ****   ******    PROGRAM STARTED BY                                   mia
 ***** **    ** ** **   PROGRAM PROCESS ID                                 37479
  **** **  *******  **  PROGRAM STARTED IN /home/mia/Dokumente/GW100/Paper/Fig_4
                                           /1_O3_PBE0

 CP2K| version string:                 CP2K version 2024.1 (Development Version)
 CP2K| source code revision number:                                  git:5a0b72e
 CP2K| cp2kflags: omp libint fftw3 libxc parallel mpi_f08 scalapack xsmm        
 CP2K| is freely available from                            https://www.cp2k.org/
 CP2K| Program compiled at                         Di 14. Mai 11:56:18 CEST 2024
 CP2K| Program compiled on                                           surface-mia
 CP2K| Program compiled for                                                local
 CP2K| Data directory path                    /home/mia/Dokumente/Code/cp2k/data
 CP2K| Input file name                                                    GW.inp

 GLOBAL| Force Environment number                                              1
 GLOBAL| Basis set file name                              BASIS_def2_QZVP_RI_ALL
 GLOBAL| Potential file name                                           POTENTIAL
 GLOBAL| MM Potential file name                                     MM_POTENTIAL
 GLOBAL| Coordinate file name                                      __STD_INPUT__
 GLOBAL| Method name                                                        CP2K
 GLOBAL| Project name                                                   ALL_ELEC
 GLOBAL| Run type                                                         ENERGY
 GLOBAL| FFT library                                                       FFTW3
 GLOBAL| Diagonalization library                                       ScaLAPACK
 GLOBAL| DGEMM library                                                      BLAS
 GLOBAL| Orthonormality check for eigenvectors                          DISABLED
 GLOBAL| Matrix multiplication library                                 ScaLAPACK
 GLOBAL| All-to-all communication in single precision                          F
 GLOBAL| FFTs using library dependent lengths                                  F
 GLOBAL| Grid backend                                                       AUTO
 GLOBAL| Global print level                                               MEDIUM
 GLOBAL| MPI I/O enabled                                                       T
 GLOBAL| Total number of message passing processes                             1
 GLOBAL| Number of threads for this process                                    1
 GLOBAL| This output is from process                                           0
 GLOBAL| Stack size for threads created by OpenMP (OMP_STACKSIZE)        default
 GLOBAL| CPU model name           11th Gen Intel(R) Core(TM) i5-1135G7 @ 2.40GHz
 GLOBAL| CPUID                                                              1003
 GLOBAL| Compiled for CPUID                                                    0

 *** HINT in environment.F:920 :: The compiler target flags (generic) used ***
 *** to build this binary cannot exploit all extensions of this CPU model  ***
 *** (x86_avx512). Consider compiler target flags as part of FCFLAGS and   ***
 *** CFLAGS (ARCH file).                                                   ***


 MEMORY| system memory details [Kb]
 MEMORY|                        rank 0           min           max       average
 MEMORY| MemTotal              7965312       7965312       7965312       7965312
 MEMORY| MemFree               3692648       3692648       3692648       3692648
 MEMORY| Buffers                 72052         72052         72052         72052
 MEMORY| Cached                1456948       1456948       1456948       1456948
 MEMORY| Slab                   250332        250332        250332        250332
 MEMORY| SReclaimable            96236         96236         96236         96236
 MEMORY| MemLikelyFree         5317884       5317884       5317884       5317884


 *** Fundamental physical constants (SI units) ***

 *** Literature: B. J. Mohr and B. N. Taylor,
 ***             CODATA recommended values of the fundamental physical
 ***             constants: 2006, Web Version 5.1
 ***             http://physics.nist.gov/constants

 Speed of light in vacuum [m/s]                             2.99792458000000E+08
 Magnetic constant or permeability of vacuum [N/A**2]       1.25663706143592E-06
 Electric constant or permittivity of vacuum [F/m]          8.85418781762039E-12
 Planck constant (h) [J*s]                                  6.62606896000000E-34
 Planck constant (h-bar) [J*s]                              1.05457162825177E-34
 Elementary charge [C]                                      1.60217648700000E-19
 Electron mass [kg]                                         9.10938215000000E-31
 Electron g factor [ ]                                     -2.00231930436220E+00
 Proton mass [kg]                                           1.67262163700000E-27
 Fine-structure constant                                    7.29735253760000E-03
 Rydberg constant [1/m]                                     1.09737315685270E+07
 Avogadro constant [1/mol]                                  6.02214179000000E+23
 Boltzmann constant [J/K]                                   1.38065040000000E-23
 Atomic mass unit [kg]                                      1.66053878200000E-27
 Bohr radius [m]                                            5.29177208590000E-11

 *** Conversion factors ***

 [u] -> [a.u.]                                              1.82288848426455E+03
 [Angstrom] -> [Bohr] = [a.u.]                              1.88972613288564E+00
 [a.u.] = [Bohr] -> [Angstrom]                              5.29177208590000E-01
 [a.u.] -> [s]                                              2.41888432650478E-17
 [a.u.] -> [fs]                                             2.41888432650478E-02
 [a.u.] -> [J]                                              4.35974393937059E-18
 [a.u.] -> [N]                                              8.23872205491840E-08
 [a.u.] -> [K]                                              3.15774647902944E+05
 [a.u.] -> [kJ/mol]                                         2.62549961709828E+03
 [a.u.] -> [kcal/mol]                                       6.27509468713739E+02
 [a.u.] -> [Pa]                                             2.94210107994716E+13
 [a.u.] -> [bar]                                            2.94210107994716E+08
 [a.u.] -> [atm]                                            2.90362800883016E+08
 [a.u.] -> [eV]                                             2.72113838565563E+01
 [a.u.] -> [Hz]                                             6.57968392072181E+15
 [a.u.] -> [1/cm] (wave numbers)                            2.19474631370540E+05
 [a.u./Bohr**2] -> [1/cm]                                   5.14048714338585E+03
 

 CELL_TOP| Volume [angstrom^3]:                                      1000.000000
 CELL_TOP| Vector a [angstrom    10.000     0.000     0.000   |a| =    10.000000
 CELL_TOP| Vector b [angstrom     0.000    10.000     0.000   |b| =    10.000000
 CELL_TOP| Vector c [angstrom     0.000     0.000    10.000   |c| =    10.000000
 CELL_TOP| Angle (b,c), alpha [degree]:                                90.000000
 CELL_TOP| Angle (a,c), beta  [degree]:                                90.000000
 CELL_TOP| Angle (a,b), gamma [degree]:                                90.000000
 CELL_TOP| Numerically orthorhombic:                                         YES
 CELL_TOP| Periodicity                                                      NONE

 GENERATE|  Preliminary Number of Bonds generated:                             0
 GENERATE|  Achieved consistency in connectivity generation.

 CELL| Volume [angstrom^3]:                                          1000.000000
 CELL| Vector a [angstrom]:      10.000     0.000     0.000   |a| =    10.000000
 CELL| Vector b [angstrom]:       0.000    10.000     0.000   |b| =    10.000000
 CELL| Vector c [angstrom]:       0.000     0.000    10.000   |c| =    10.000000
 CELL| Angle (b,c), alpha [degree]:                                    90.000000
 CELL| Angle (a,c), beta  [degree]:                                    90.000000
 CELL| Angle (a,b), gamma [degree]:                                    90.000000
 CELL| Numerically orthorhombic:                                             YES
 CELL| Periodicity                                                          NONE

 CELL_REF| Volume [angstrom^3]:                                      1000.000000
 CELL_REF| Vector a [angstrom    10.000     0.000     0.000   |a| =    10.000000
 CELL_REF| Vector b [angstrom     0.000    10.000     0.000   |b| =    10.000000
 CELL_REF| Vector c [angstrom     0.000     0.000    10.000   |c| =    10.000000
 CELL_REF| Angle (b,c), alpha [degree]:                                90.000000
 CELL_REF| Angle (a,c), beta  [degree]:                                90.000000
 CELL_REF| Angle (a,b), gamma [degree]:                                90.000000
 CELL_REF| Numerically orthorhombic:                                         YES
 CELL_REF| Periodicity                                                      NONE

 *******************************************************************************
 *******************************************************************************
 **                                                                           **
 **     #####                         ##              ##                      **
 **    ##   ##            ##          ##              ##                      **
 **   ##     ##                       ##            ######                    **
 **   ##     ##  ##   ##  ##   #####  ##  ##   ####   ##    #####    #####    **
 **   ##     ##  ##   ##  ##  ##      ## ##   ##      ##   ##   ##  ##   ##   **
 **   ##  ## ##  ##   ##  ##  ##      ####     ###    ##   ######   ######    **
 **    ##  ###   ##   ##  ##  ##      ## ##      ##   ##   ##       ##        **
 **     #######   #####   ##   #####  ##  ##  ####    ##    #####   ##        **
 **           ##                                                    ##        **
 **                                                                           **
 **                                                ... make the atoms dance   **
 **                                                                           **
 **            Copyright (C) by CP2K developers group (2000-2024)             **
 **                      J. Chem. Phys. 152, 194103 (2020)                    **
 **                                                                           **
 *******************************************************************************

 DFT| Spin restricted Kohn-Sham (RKS) calculation                            RKS
 DFT| Multiplicity                                                             1
 DFT| Number of spin states                                                    1
 DFT| Charge                                                                   0
 DFT| Self-interaction correction (SIC)                                       NO
 DFT| Cutoffs: density                                              1.000000E-10
 DFT|          gradient                                             1.000000E-10
 DFT|          tau                                                  1.000000E-10
 DFT|          cutoff_smoothing_range                               0.000000E+00
 DFT| XC density smoothing                                                  NONE
 DFT| XC derivatives                                                          PW

 FUNCTIONAL| PBE:
 FUNCTIONAL| J.P.Perdew, K.Burke, M.Ernzerhof, Phys. Rev. Letter, vol. 77, n 18,
 FUNCTIONAL|  pp. 3865-3868, (1996)sx=0.750sc=1.000{spin unpolarized}           


 QS| Method:                                                                GAPW
 QS| Density plane wave grid type                        NON-SPHERICAL FULLSPACE
 QS| Number of grid levels:                                                    4
 QS| Density cutoff [a.u.]:                                                200.0
 QS| Multi grid cutoff [a.u.]: 1) grid level                               200.0
 QS|                           2) grid level                                66.7
 QS|                           3) grid level                                22.2
 QS|                           4) grid level                                 7.4
 QS| Grid level progression factor:                                          3.0
 QS| Relative density cutoff [a.u.]:                                        25.0
 QS| Interaction thresholds: eps_pgf_orb:                                1.0E-05
 QS|                         eps_filter_matrix:                          0.0E+00
 QS|                         eps_core_charge:                            1.0E-12
 QS|                         eps_rho_gspace:                             1.0E-10
 QS|                         eps_rho_rspace:                             1.0E-10
 QS|                         eps_gvg_rspace:                             1.0E-05
 QS|                         eps_ppl:                                    1.0E-02
 QS|                         eps_ppnl:                                   1.0E-07
 QS| GAPW|      One center basis from orbital basis primitives
 QS| GAPW|                   eps_fit:                                    1.0E-04
 QS| GAPW|                   eps_iso:                                    1.0E-12
 QS| GAPW|                   eps_svd:                                    1.0E-08
 QS| GAPW|                   eps_cpc:                                    1.0E-10
 QS| GAPW|   atom-r-grid: quadrature:                                     GC_LOG
 QS| GAPW|      atom-s-grid:  max l :                                          8
 QS| GAPW|      max_l_rho0 :                                                   2


 ATOMIC KIND INFORMATION

  1. Atomic kind: O                                     Number of atoms:       3

     Orbital Basis Set                                                 def2-QZVP

       Number of orbital shell sets:                                          17
       Number of orbital shells:                                              17
       Number of primitive Cartesian functions:                               29
       Number of Cartesian basis functions:                                   72
       Number of spherical basis functions:                                   57
       Norm type:                                                              2

       Normalised Cartesian orbitals:

                        Set   Shell   Orbital            Exponent    Coefficient

                          1       1    1px               0.128640       0.109815
                          1       1    1py               0.128640       0.109815
                          1       1    1pz               0.128640       0.109815

                          2       1    1s                0.197727       0.211329

                          3       1    1px               0.336177       0.364880
                          3       1    1py               0.336177       0.364880
                          3       1    1pz               0.336177       0.364880

                          4       1    1dx2              0.444000       0.397493
                          4       1    1dxy              0.444000       0.688478
                          4       1    1dxz              0.444000       0.688478
                          4       1    1dy2              0.444000       0.397493
                          4       1    1dyz              0.444000       0.688478
                          4       1    1dz2              0.444000       0.397493

                          5       1    1s                0.518772       0.435655

                          6       1    1px               0.842824       1.151095
                          6       1    1py               0.842824       1.151095
                          6       1    1pz               0.842824       1.151095

                          7       1    1fx3              0.859000       1.045777
                          7       1    1fx2y             0.859000       2.338428
                          7       1    1fx2z             0.859000       2.338428
                          7       1    1fxy2             0.859000       2.338428
                          7       1    1fxyz             0.859000       4.050277
                          7       1    1fxz2             0.859000       2.338428
                          7       1    1fy3              0.859000       1.045777
                          7       1    1fy2z             0.859000       2.338428
                          7       1    1fyz2             0.859000       2.338428
                          7       1    1fz3              0.859000       1.045777

                          8       1    1dx2              1.300000       2.605016
                          8       1    1dxy              1.300000       4.512019
                          8       1    1dxz              1.300000       4.512019
                          8       1    1dy2              1.300000       2.605016
                          8       1    1dyz              1.300000       4.512019
                          8       1    1dz2              1.300000       2.605016

                          9       1    1s                1.325535       0.880448

                         10       1    1gx4              1.846000       6.005824
                         10       1    1gx3y             1.846000      15.889916
                         10       1    1gx3z             1.846000      15.889916
                         10       1    1gx2y2            1.846000      20.513794
                         10       1    1gx2yz            1.846000      35.530933
                         10       1    1gx2z2            1.846000      20.513794
                         10       1    1gxy3             1.846000      15.889916
                         10       1    1gxy2z            1.846000      35.530933
                         10       1    1gxyz2            1.846000      35.530933
                         10       1    1gxz3             1.846000      15.889916
                         10       1    1gy4              1.846000       6.005824
                         10       1    1gy3z             1.846000      15.889916
                         10       1    1gy2z2            1.846000      20.513794
                         10       1    1gyz3             1.846000      15.889916
                         10       1    1gz4              1.846000       6.005824

                         11       1    1px             191.152558       2.569255
                                                        45.233357       3.383308
                                                        14.353466       3.764009
                                                         5.242237       3.495516
                                                         2.079242       2.436773
                         11       1    1py             191.152558       2.569255
                                                        45.233357       3.383308
                                                        14.353466       3.764009
                                                         5.242237       3.495516
                                                         2.079242       2.436773
                         11       1    1pz             191.152558       2.569255
                                                        45.233357       3.383308
                                                        14.353466       3.764009
                                                         5.242237       3.495516
                                                         2.079242       2.436773

                         12       1    1fx3              2.666000      13.370258
                         12       1    1fx2y             2.666000      29.896805
                         12       1    1fx2z             2.666000      29.896805
                         12       1    1fxy2             2.666000      29.896805
                         12       1    1fxyz             2.666000      51.782785
                         12       1    1fxz2             2.666000      29.896805
                         12       1    1fy3              2.666000      13.370258
                         12       1    1fy2z             2.666000      29.896805
                         12       1    1fyz2             2.666000      29.896805
                         12       1    1fz3              2.666000      13.370258

                         13       1    1dx2              3.775000      16.827288
                         13       1    1dxy              3.775000      29.145718
                         13       1    1dxz              3.775000      29.145718
                         13       1    1dy2              3.775000      16.827288
                         13       1    1dyz              3.775000      29.145718
                         13       1    1dz2              3.775000      16.827288

                         14       1    1s                4.094773       2.051552

                         15       1    1s                9.282282       3.790104

                         16       1    1s           116506.469080       0.323542
                                                     17504.349724       0.604284
                                                      3993.451323       1.042947
                                                      1133.006319       1.694135
                                                       369.995696       2.585616
                                                       133.620743       3.631450
                                                        52.035644       4.414414
                                                        21.461939       4.188022

                         17       1    1s               89.835051       1.972527
                                                        26.428011       7.687249

     RI Auxiliary Basis Set                                                RI-5Z

       Number of orbital shell sets:                                          38
       Number of orbital shells:                                              38
       Number of primitive Cartesian functions:                               38
       Number of Cartesian basis functions:                                  259
       Number of spherical basis functions:                                  180
       Norm type:                                                              2

       Normalised Cartesian orbitals:

                        Set   Shell   Orbital            Exponent    Coefficient

                          1       1    1s                0.251005       0.252739

                          2       1    1dx2              0.303063       0.203747
                          2       1    1dxy              0.303063       0.352901
                          2       1    1dxz              0.303063       0.352901
                          2       1    1dy2              0.303063       0.203747
                          2       1    1dyz              0.303063       0.352901
                          2       1    1dz2              0.303063       0.203747

                          3       1    1px               0.416519       0.476962
                          3       1    1py               0.416519       0.476962
                          3       1    1pz               0.416519       0.476962

                          4       1    1s                0.474911       0.407727

                          5       1    1fx3              0.621013       0.504001
                          5       1    1fx2y             0.621013       1.126979
                          5       1    1fx2z             0.621013       1.126979
                          5       1    1fxy2             0.621013       1.126979
                          5       1    1fxyz             0.621013       1.951986
                          5       1    1fxz2             0.621013       1.126979
                          5       1    1fy3              0.621013       0.504001
                          5       1    1fy2z             0.621013       1.126979
                          5       1    1fyz2             0.621013       1.126979
                          5       1    1fz3              0.621013       0.504001

                          6       1    1px               0.696641       0.907197
                          6       1    1py               0.696641       0.907197
                          6       1    1pz               0.696641       0.907197

                          7       1    1dx2              0.719024       0.924082
                          7       1    1dxy              0.719024       1.600557
                          7       1    1dxz              0.719024       1.600557
                          7       1    1dy2              0.719024       0.924082
                          7       1    1dyz              0.719024       1.600557
                          7       1    1dz2              0.719024       0.924082

                          8       1    1gx4              1.007810       1.136912
                          8       1    1gx3y             1.007810       3.007986
                          8       1    1gx3z             1.007810       3.007986
                          8       1    1gx2y2            1.007810       3.883293
                          8       1    1gx2yz            1.007810       6.726061
                          8       1    1gx2z2            1.007810       3.883293
                          8       1    1gxy3             1.007810       3.007986
                          8       1    1gxy2z            1.007810       6.726061
                          8       1    1gxyz2            1.007810       6.726061
                          8       1    1gxz3             1.007810       3.007986
                          8       1    1gy4              1.007810       1.136912
                          8       1    1gy3z             1.007810       3.007986
                          8       1    1gy2z2            1.007810       3.883293
                          8       1    1gyz3             1.007810       3.007986
                          8       1    1gz4              1.007810       1.136912

                          9       1    1s                1.058590       0.743800

                         10       1    1fx3              1.185310       2.158124
                         10       1    1fx2y             1.185310       4.825711
                         10       1    1fx2z             1.185310       4.825711
                         10       1    1fxy2             1.185310       4.825711
                         10       1    1fxyz             1.185310       8.358377
                         10       1    1fxz2             1.185310       4.825711
                         10       1    1fy3              1.185310       2.158124
                         10       1    1fy2z             1.185310       4.825711
                         10       1    1fyz2             1.185310       4.825711
                         10       1    1fz3              1.185310       2.158124

                         11       1    1px               1.274280       1.929839
                         11       1    1py               1.274280       1.929839
                         11       1    1pz               1.274280       1.929839

                         12       1    1dx2              1.442130       3.123685
                         12       1    1dxy              1.442130       5.410380
                         12       1    1dxz              1.442130       5.410380
                         12       1    1dy2              1.442130       3.123685
                         12       1    1dyz              1.442130       5.410380
                         12       1    1dz2              1.442130       3.123685

                         13       1    1hx5              1.724010       4.356106
                         13       1    1hx4y             1.724010      13.068318
                         13       1    1hx4z             1.724010      13.068318
                         13       1    1hx3y2            1.724010      19.962186
                         13       1    1hx3yz            1.724010      34.575521
                         13       1    1hx3z2            1.724010      19.962186
                         13       1    1hx2y3            1.724010      19.962186
                         13       1    1hx2y2z           1.724010      44.636805
                         13       1    1hx2yz2           1.724010      44.636805
                         13       1    1hx2z3            1.724010      19.962186
                         13       1    1hxy4             1.724010      13.068318
                         13       1    1hxy3z            1.724010      34.575521
                         13       1    1hxy2z2           1.724010      44.636805
                         13       1    1hxyz3            1.724010      34.575521
                         13       1    1hxz4             1.724010      13.068318
                         13       1    1hy5              1.724010       4.356106
                         13       1    1hy4z             1.724010      13.068318
                         13       1    1hy3z2            1.724010      19.962186
                         13       1    1hy2z3            1.724010      19.962186
                         13       1    1hyz4             1.724010      13.068318
                         13       1    1hz5              1.724010       4.356106

                         14       1    1s                1.940030       1.171565

                         15       1    1gx4              2.038250       7.886665
                         15       1    1gx3y             2.038250      20.866155
                         15       1    1gx3z             2.038250      20.866155
                         15       1    1gx2y2            2.038250      26.938091
                         15       1    1gx2yz            2.038250      46.658142
                         15       1    1gx2z2            2.038250      26.938091
                         15       1    1gxy3             2.038250      20.866155
                         15       1    1gxy2z            2.038250      46.658142
                         15       1    1gxyz2            2.038250      46.658142
                         15       1    1gxz3             2.038250      20.866155
                         15       1    1gy4              2.038250       7.886665
                         15       1    1gy3z             2.038250      20.866155
                         15       1    1gy2z2            2.038250      26.938091
                         15       1    1gyz3             2.038250      20.866155
                         15       1    1gz4              2.038250       7.886665

                         16       1    1fx3              2.093740       7.763019
                         16       1    1fx2y             2.093740      17.358638
                         16       1    1fx2z             2.093740      17.358638
                         16       1    1fxy2             2.093740      17.358638
                         16       1    1fxyz             2.093740      30.066042
                         16       1    1fxz2             2.093740      17.358638
                         16       1    1fy3              2.093740       7.763019
                         16       1    1fy2z             2.093740      17.358638
                         16       1    1fyz2             2.093740      17.358638
                         16       1    1fz3              2.093740       7.763019

                         17       1    1dx2              2.719410       9.478512
                         17       1    1dxy              2.719410      16.417264
                         17       1    1dxz              2.719410      16.417264
                         17       1    1dy2              2.719410       9.478512
                         17       1    1dyz              2.719410      16.417264
                         17       1    1dz2              2.719410       9.478512

                         18       1    1px               2.756880       5.063635
                         18       1    1py               2.756880       5.063635
                         18       1    1pz               2.756880       5.063635

                         19       1    1hx5              3.223120      33.284552
                         19       1    1hx4y             3.223120      99.853655
                         19       1    1hx4z             3.223120      99.853655
                         19       1    1hx3y2            3.223120     152.528977
                         19       1    1hx3yz            3.223120     264.187938
                         19       1    1hx3z2            3.223120     152.528977
                         19       1    1hx2y3            3.223120     152.528977
                         19       1    1hx2y2z           3.223120     341.065161
                         19       1    1hx2yz2           3.223120     341.065161
                         19       1    1hx2z3            3.223120     152.528977
                         19       1    1hxy4             3.223120      99.853655
                         19       1    1hxy3z            3.223120     264.187938
                         19       1    1hxy2z2           3.223120     341.065161
                         19       1    1hxyz3            3.223120     264.187938
                         19       1    1hxz4             3.223120      99.853655
                         19       1    1hy5              3.223120      33.284552
                         19       1    1hy4z             3.223120      99.853655
                         19       1    1hy3z2            3.223120     152.528977
                         19       1    1hy2z3            3.223120     152.528977
                         19       1    1hyz4             3.223120      99.853655
                         19       1    1hz5              3.223120      33.284552

                         20       1    1s                3.595370       1.860878

                         21       1    1fx3              3.721040      28.310609
                         21       1    1fx2y             3.721040      63.304446
                         21       1    1fx2z             3.721040      63.304446
                         21       1    1fxy2             3.721040      63.304446
                         21       1    1fxyz             3.721040     109.646517
                         21       1    1fxz2             3.721040      63.304446
                         21       1    1fy3              3.721040      28.310609
                         21       1    1fy2z             3.721040      63.304446
                         21       1    1fyz2             3.721040      63.304446
                         21       1    1fz3              3.721040      28.310609

                         22       1    1gx4              3.883140      46.418255
                         22       1    1gx3y             3.883140     122.811159
                         22       1    1gx3z             3.883140     122.811159
                         22       1    1gx2y2            3.883140     158.548524
                         22       1    1gx2yz            3.883140     274.614099
                         22       1    1gx2z2            3.883140     158.548524
                         22       1    1gxy3             3.883140     122.811159
                         22       1    1gxy2z            3.883140     274.614099
                         22       1    1gxyz2            3.883140     274.614099
                         22       1    1gxz3             3.883140     122.811159
                         22       1    1gy4              3.883140      46.418255
                         22       1    1gy3z             3.883140     122.811159
                         22       1    1gy2z2            3.883140     158.548524
                         22       1    1gyz3             3.883140     122.811159
                         22       1    1gz4              3.883140      46.418255

                         23       1    1dx2              4.518780      23.051360
                         23       1    1dxy              4.518780      39.926127
                         23       1    1dxz              4.518780      39.926127
                         23       1    1dy2              4.518780      23.051360
                         23       1    1dyz              4.518780      39.926127
                         23       1    1dz2              4.518780      23.051360

                         24       1    1px               4.708760       9.887199
                         24       1    1py               4.708760       9.887199
                         24       1    1pz               4.708760       9.887199

                         25       1    1hx5              5.427550     181.053374
                         25       1    1hx4y             5.427550     543.160123
                         25       1    1hx4z             5.427550     543.160123
                         25       1    1hx3y2            5.427550     829.690793
                         25       1    1hx3yz            5.427550    1437.066608
                         25       1    1hx3z2            5.427550     829.690793
                         25       1    1hx2y3            5.427550     829.690793
                         25       1    1hx2y2z           5.427550    1855.245014
                         25       1    1hx2yz2           5.427550    1855.245014
                         25       1    1hx2z3            5.427550     829.690793
                         25       1    1hxy4             5.427550     543.160123
                         25       1    1hxy3z            5.427550    1437.066608
                         25       1    1hxy2z2           5.427550    1855.245014
                         25       1    1hxyz3            5.427550    1437.066608
                         25       1    1hxz4             5.427550     543.160123
                         25       1    1hy5              5.427550     181.053374
                         25       1    1hy4z             5.427550     543.160123
                         25       1    1hy3z2            5.427550     829.690793
                         25       1    1hy2z3            5.427550     829.690793
                         25       1    1hyz4             5.427550     543.160123
                         25       1    1hz5              5.427550     181.053374

                         26       1    1s                5.831540       2.674530

                         27       1    1fx3              6.442910      97.361912
                         27       1    1fx2y             6.442910     217.707854
                         27       1    1fx2z             6.442910     217.707854
                         27       1    1fxy2             6.442910     217.707854
                         27       1    1fxyz             6.442910     377.081065
                         27       1    1fxz2             6.442910     217.707854
                         27       1    1fy3              6.442910      97.361912
                         27       1    1fy2z             6.442910     217.707854
                         27       1    1fyz2             6.442910     217.707854
                         27       1    1fz3              6.442910      97.361912

                         28       1    1gx4              7.014070     235.968042
                         28       1    1gx3y             7.014070     624.312756
                         28       1    1gx3z             7.014070     624.312756
                         28       1    1gx2y2            7.014070     805.984303
                         28       1    1gx2yz            7.014070    1396.005762
                         28       1    1gx2z2            7.014070     805.984303
                         28       1    1gxy3             7.014070     624.312756
                         28       1    1gxy2z            7.014070    1396.005762
                         28       1    1gxyz2            7.014070    1396.005762
                         28       1    1gxz3             7.014070     624.312756
                         28       1    1gy4              7.014070     235.968042
                         28       1    1gy3z             7.014070     624.312756
                         28       1    1gy2z2            7.014070     805.984303
                         28       1    1gyz3             7.014070     624.312756
                         28       1    1gz4              7.014070     235.968042

                         29       1    1dx2              7.274420      53.034271
                         29       1    1dxy              7.274420      91.858053
                         29       1    1dxz              7.274420      91.858053
                         29       1    1dy2              7.274420      53.034271
                         29       1    1dyz              7.274420      91.858053
                         29       1    1dz2              7.274420      53.034271

                         30       1    1px              11.049300      28.714982
                         30       1    1py              11.049300      28.714982
                         30       1    1pz              11.049300      28.714982

                         31       1    1fx3             14.098700     567.031722
                         31       1    1fx2y            14.098700    1267.921477
                         31       1    1fx2z            14.098700    1267.921477
                         31       1    1fxy2            14.098700    1267.921477
                         31       1    1fxyz            14.098700    2196.104418
                         31       1    1fxz2            14.098700    1267.921477
                         31       1    1fy3             14.098700     567.031722
                         31       1    1fy2z            14.098700    1267.921477
                         31       1    1fyz2            14.098700    1267.921477
                         31       1    1fz3             14.098700     567.031722

                         32       1    1s               14.825500       5.384769

                         33       1    1dx2             21.988200     367.486504
                         33       1    1dxy             21.988200     636.505295
                         33       1    1dxz             21.988200     636.505295
                         33       1    1dy2             21.988200     367.486504
                         33       1    1dyz             21.988200     636.505295
                         33       1    1dz2             21.988200     367.486504

                         34       1    1px              25.465100      81.540209
                         34       1    1py              25.465100      81.540209
                         34       1    1pz              25.465100      81.540209

                         35       1    1s               28.708200       8.839233

                         36       1    1px              94.256600     418.629472
                         36       1    1py              94.256600     418.629472
                         36       1    1pz              94.256600     418.629472

                         37       1    1s              105.279000      23.424288

                         38       1    1s              488.561000      74.062640

       Atomic covalent radius [Angstrom]:                                  0.730

       Atomic van der Waals radius [Angstrom]:                             1.520

     The atoms of this atomic kind are PAW atoms (GAPW):
       Hard Gaussian function radius:                                      1.512
       Rho0 radius:                                                        1.512
       Maximum GTO radius used for PAW projector construction:            24.566

     GAPW Soft Basis Set                                          def2-QZVP_soft

       Number of orbital shell sets:                                          17
       Number of orbital shells:                                              17
       Number of primitive Cartesian functions:                               13
       Number of Cartesian basis functions:                                   72
       Number of spherical basis functions:                                   57
       Norm type:                                                              2

       Normalised Cartesian orbitals:

                        Set   Shell   Orbital            Exponent    Coefficient

                          1       1    1px               0.128640       0.109815
                          1       1    1py               0.128640       0.109815
                          1       1    1pz               0.128640       0.109815

                          2       1    1s                0.197727       0.211329

                          3       1    1px               0.336177       0.364880
                          3       1    1py               0.336177       0.364880
                          3       1    1pz               0.336177       0.364880

                          4       1    1dx2              0.444000       0.397493
                          4       1    1dxy              0.444000       0.688478
                          4       1    1dxz              0.444000       0.688478
                          4       1    1dy2              0.444000       0.397493
                          4       1    1dyz              0.444000       0.688478
                          4       1    1dz2              0.444000       0.397493

                          5       1    1s                0.518772       0.435655

                          6       1    1px               0.842824       1.151095
                          6       1    1py               0.842824       1.151095
                          6       1    1pz               0.842824       1.151095

                          7       1    1fx3              0.859000       1.045777
                          7       1    1fx2y             0.859000       2.338428
                          7       1    1fx2z             0.859000       2.338428
                          7       1    1fxy2             0.859000       2.338428
                          7       1    1fxyz             0.859000       4.050277
                          7       1    1fxz2             0.859000       2.338428
                          7       1    1fy3              0.859000       1.045777
                          7       1    1fy2z             0.859000       2.338428
                          7       1    1fyz2             0.859000       2.338428
                          7       1    1fz3              0.859000       1.045777

                          8       1    1dx2              1.300000       2.605016
                          8       1    1dxy              1.300000       4.512019
                          8       1    1dxz              1.300000       4.512019
                          8       1    1dy2              1.300000       2.605016
                          8       1    1dyz              1.300000       4.512019
                          8       1    1dz2              1.300000       2.605016

                          9       1    1s                1.325535       0.880448

                         10       1    1gx4              1.846000       6.005824
                         10       1    1gx3y             1.846000      15.889916
                         10       1    1gx3z             1.846000      15.889916
                         10       1    1gx2y2            1.846000      20.513794
                         10       1    1gx2yz            1.846000      35.530933
                         10       1    1gx2z2            1.846000      20.513794
                         10       1    1gxy3             1.846000      15.889916
                         10       1    1gxy2z            1.846000      35.530933
                         10       1    1gxyz2            1.846000      35.530933
                         10       1    1gxz3             1.846000      15.889916
                         10       1    1gy4              1.846000       6.005824
                         10       1    1gy3z             1.846000      15.889916
                         10       1    1gy2z2            1.846000      20.513794
                         10       1    1gyz3             1.846000      15.889916
                         10       1    1gz4              1.846000       6.005824

                         11       1    1px               2.079242       2.436773
                         11       1    1py               2.079242       2.436773
                         11       1    1pz               2.079242       2.436773

                         12       1    1fx3              2.666000      13.370258
                         12       1    1fx2y             2.666000      29.896805
                         12       1    1fx2z             2.666000      29.896805
                         12       1    1fxy2             2.666000      29.896805
                         12       1    1fxyz             2.666000      51.782785
                         12       1    1fxz2             2.666000      29.896805
                         12       1    1fy3              2.666000      13.370258
                         12       1    1fy2z             2.666000      29.896805
                         12       1    1fyz2             2.666000      29.896805
                         12       1    1fz3              2.666000      13.370258

                         13       1    1dx2              3.775000      16.827288
                         13       1    1dxy              3.775000      29.145718
                         13       1    1dxz              3.775000      29.145718
                         13       1    1dy2              3.775000      16.827288
                         13       1    1dyz              3.775000      29.145718
                         13       1    1dz2              3.775000      16.827288

                         14       1    1s         

                         15       1    1s         

                         16       1    1s         

                         17       1    1s         

     AE Potential information for                                            ALL

       Description:                                       All-electron potential
                                          Krack, Parrinello, PCCP 2, 2105 (2000)

       Gaussian exponent of the core charge distribution:               8.154466
       Electronic configuration (s p d ...):                           4   4   0


 MOLECULE KIND INFORMATION


 All atoms are their own molecule, skipping detailed information


 TOTAL NUMBERS AND MAXIMUM NUMBERS

  Total number of            - Atomic kinds:                                   1
                             - Atoms:                                          3
                             - Shell sets:                                    51
                             - Shells:                                        51
                             - Primitive Cartesian functions:                 87
                             - Cartesian basis functions:                    216
                             - Spherical basis functions:                    171

  Maximum angular momentum of the orbital basis functions:                     4


 MODULE QUICKSTEP: ATOMIC COORDINATES IN ANGSTROM

   Atom Kind Element         X             Y             Z       Z(eff)     Mass
      1    1 O     8      5.000000      5.000000      4.670000   8.0000  15.9994
      2    1 O     8      6.086900      5.000000      5.330000   8.0000  15.9994
      3    1 O     8      3.913100      5.000000      5.330000   8.0000  15.9994



 SCF PARAMETERS         Density guess:                                   RESTART
                        --------------------------------------------------------
                        max_scf:                                             200
                        max_scf_history:                                       0
                        max_diis:                                              4
                        --------------------------------------------------------
                        eps_scf:                                        1.00E-06
                        eps_scf_history:                                0.00E+00
                        eps_diis:                                       1.00E-01
                        eps_eigval:                                     1.00E-05
                        --------------------------------------------------------
                        level_shift [a.u.]:                             0.000000
                        --------------------------------------------------------
                        Mixing method:                           DIRECT_P_MIXING
                        --------------------------------------------------------
                        No outer SCF

 PW_GRID| Information for grid number                                          1
 PW_GRID| Cutoff [a.u.]                                                    400.0
 PW_GRID| spherical cutoff:                                                   NO
 PW_GRID|   Bounds   1            -90      89                Points:         180
 PW_GRID|   Bounds   2            -90      89                Points:         180
 PW_GRID|   Bounds   3            -90      89                Points:         180
 PW_GRID| Volume element (a.u.^3)  0.1157E-02     Volume (a.u.^3)      6748.3346
 PW_GRID| Grid span                                                    FULLSPACE

 PW_GRID| Information for grid number                                          2
 PW_GRID| Number of the reference grid                                         1
 PW_GRID| Cutoff [a.u.]                                                    200.0
 PW_GRID| spherical cutoff:                                                   NO
 PW_GRID|   Bounds   1            -62      62                Points:         125
 PW_GRID|   Bounds   2            -62      62                Points:         125
 PW_GRID|   Bounds   3            -62      62                Points:         125
 PW_GRID| Volume element (a.u.^3)  0.3455E-02     Volume (a.u.^3)      6748.3346
 PW_GRID| Grid span                                                    FULLSPACE

 PW_GRID| Information for grid number                                          3
 PW_GRID| Number of the reference grid                                         2
 PW_GRID| Cutoff [a.u.]                                                     66.7
 PW_GRID| spherical cutoff:                                                   NO
 PW_GRID|   Bounds   1            -36      35                Points:          72
 PW_GRID|   Bounds   2            -36      35                Points:          72
 PW_GRID|   Bounds   3            -36      35                Points:          72
 PW_GRID| Volume element (a.u.^3)  0.1808E-01     Volume (a.u.^3)      6748.3346
 PW_GRID| Grid span                                                    FULLSPACE

 PW_GRID| Information for grid number                                          4
 PW_GRID| Number of the reference grid                                         2
 PW_GRID| Cutoff [a.u.]                                                     22.2
 PW_GRID| spherical cutoff:                                                   NO
 PW_GRID|   Bounds   1            -22      22                Points:          45
 PW_GRID|   Bounds   2            -22      22                Points:          45
 PW_GRID|   Bounds   3            -22      22                Points:          45
 PW_GRID| Volume element (a.u.^3)  0.7406E-01     Volume (a.u.^3)      6748.3346
 PW_GRID| Grid span                                                    FULLSPACE

 PW_GRID| Information for grid number                                          5
 PW_GRID| Number of the reference grid                                         2
 PW_GRID| Cutoff [a.u.]                                                      7.4
 PW_GRID| spherical cutoff:                                                   NO
 PW_GRID|   Bounds   1            -12      11                Points:          24
 PW_GRID|   Bounds   2            -12      11                Points:          24
 PW_GRID|   Bounds   3            -12      11                Points:          24
 PW_GRID| Volume element (a.u.^3)  0.4882         Volume (a.u.^3)      6748.3346
 PW_GRID| Grid span                                                    FULLSPACE

 POISSON| Solver                                          Martyna-Tuckerman (MT)
 POISSON| MT| Alpha                                                        7.000
 POISSON| MT| Relative cutoff                                                2.0
 POISSON| Periodicity                                                       NONE

 RS_GRID| Information for grid number                                          2
 RS_GRID|   Bounds   1            -62      62                Points:         125
 RS_GRID|   Bounds   2            -62      62                Points:         125
 RS_GRID|   Bounds   3            -62      62                Points:         125

 RS_GRID| Information for grid number                                          3
 RS_GRID|   Bounds   1            -36      35                Points:          72
 RS_GRID|   Bounds   2            -36      35                Points:          72
 RS_GRID|   Bounds   3            -36      35                Points:          72

 RS_GRID| Information for grid number                                          4
 RS_GRID|   Bounds   1            -22      22                Points:          45
 RS_GRID|   Bounds   2            -22      22                Points:          45
 RS_GRID|   Bounds   3            -22      22                Points:          45

 RS_GRID| Information for grid number                                          5
 RS_GRID|   Bounds   1            -12      11                Points:          24
 RS_GRID|   Bounds   2            -12      11                Points:          24
 RS_GRID|   Bounds   3            -12      11                Points:          24

  HFX_INFO| Replica ID:                                                        1
  HFX_INFO| FRACTION:                                               0.2500000000
  HFX_INFO| Interaction Potential:                                       COULOMB
  HFX_INFO| EPS_SCHWARZ:                                                 1.0E-12
  HFX_INFO| EPS_SCHWARZ_FORCES                                           1.0E-10
  HFX_INFO| EPS_STORAGE_SCALING:                                         1.0E+00
  HFX_INFO| NBINS:                                                            64
  HFX_INFO| BLOCK_SIZE:                                                        1
  HFX_INFO| Number of periodic shells considered:                           NONE
  HFX_INFO| Number of periodic cells considered:                            NONE

 
 RI-RPA| using GPW style
 

  HFX_INFO| Replica ID:                                                        1
  HFX_INFO| FRACTION:                                               1.0000000000
  HFX_INFO| Interaction Potential:                                       COULOMB
  HFX_INFO| EPS_SCHWARZ:                                                 2.0E-17
  HFX_INFO| EPS_SCHWARZ_FORCES                                           2.0E-15
  HFX_INFO| EPS_STORAGE_SCALING:                                         1.0E+00
  HFX_INFO| NBINS:                                                            64
  HFX_INFO| BLOCK_SIZE:                                                        1
  HFX_INFO| Number of periodic shells considered:                           NONE
  HFX_INFO| Number of periodic cells considered:                            NONE


 Number of electrons:                                                         24
 Number of occupied orbitals:                                                 12
 Number of molecular orbitals:                                                12

 Number of orbital functions:                                                171
 Number of independent orbital functions:                                    171

 Extrapolation method: initial_guess


 SCF WAVEFUNCTION OPTIMIZATION

  Step     Update method      Time    Convergence         Total energy    Change
  ------------------------------------------------------------------------------

  HFX_MEM_INFO| Est. max. program size before HFX [MiB]:                    1090
  HFX_MEM_INFO| Number of cart. primitive ERI's calculated:           1376436755
  HFX_MEM_INFO| Number of sph. ERI's calculated:                       219707751
  HFX_MEM_INFO| Number of sph. ERI's stored in-core:                   136336170
  HFX_MEM_INFO| Number of sph. ERI's stored on disk:                           0
  HFX_MEM_INFO| Number of sph. ERI's calculated on the fly:             83371581
  HFX_MEM_INFO| Total memory consumption ERI's RAM [MiB]:                    516
  HFX_MEM_INFO| Whereof max-vals [MiB]:                                        1
  HFX_MEM_INFO| Total compression factor ERI's RAM:                         2.02
  HFX_MEM_INFO| Total memory consumption ERI's disk [MiB]:                     0
  HFX_MEM_INFO| Total compression factor ERI's disk:                        0.00
  HFX_MEM_INFO| Size of density/Fock matrix [MiB]:                             0
  HFX_MEM_INFO| Size of buffers [MiB]:                                         0
  HFX_MEM_INFO| Est. max. program size after HFX  [MiB]:                    1603

     1 P_Mix/Diag. 0.40E+00   22.1     0.00000087      -225.2873943826 -2.25E+02

  *** SCF run converged in     1 steps ***


  Electronic density on regular grids:        -17.2850597020        6.7149402980
  Core density on regular grids:               24.0000000000        0.0000000000
  Hard and soft densities (Lebedev):          -33.7662261196      -27.0512854674
  Total Rho_soft + Rho1_hard - Rho1_soft      -24.0000003542
  Total charge density (r-space):              -0.0000003542
  Total Rho_soft + Rho0_soft (g-space):        -0.0000004844

  Overlap energy of the core charge distribution:               0.00000000036193
  Self energy of the core charge distribution:               -218.73036068360560
  Core Hamiltonian energy:                                    -19.94717611052848
  Hartree energy:                                              37.47878748408524
  Exchange-correlation energy:                                 -7.30137282761845
  Hartree-Fock Exchange energy:                                -6.07191176529254

  GAPW| Exc from hard and soft atomic rho1:                   -11.86616857272972
  GAPW| local Eh = 1 center integrals:                          1.15080809268801

  Total energy:                                              -225.28739438263960

 !-----------------------------------------------------------------------------!
                     Mulliken Population Analysis

 #  Atom  Element  Kind  Atomic population                           Net charge
       1     O        1          7.735347                              0.264653
       2     O        1          8.132322                             -0.132322
       3     O        1          8.132331                             -0.132331
 # Total charge                             24.000000                 -0.000000

 !-----------------------------------------------------------------------------!

 !-----------------------------------------------------------------------------!
                           Hirshfeld Charges

  #Atom  Element  Kind  Ref Charge     Population                    Net charge
      1       O      1       8.000          7.748                         0.252
      2       O      1       8.000          8.124                        -0.124
      3       O      1       8.000          8.124                        -0.124

  Total Charge                                                            0.004
 !-----------------------------------------------------------------------------!


 RI-RPA section
 --------------


  HFX_MEM_INFO| Est. max. program size before HFX [MiB]:                    1634
  HFX_MEM_INFO| Number of cart. primitive ERI's calculated:           1408312548
  HFX_MEM_INFO| Number of sph. ERI's calculated:                       220558244
  HFX_MEM_INFO| Number of sph. ERI's stored in-core:                    94855570
  HFX_MEM_INFO| Number of sph. ERI's stored on disk:                           0
  HFX_MEM_INFO| Number of sph. ERI's calculated on the fly:            125702674
  HFX_MEM_INFO| Total memory consumption ERI's RAM [MiB]:                    550
  HFX_MEM_INFO| Whereof max-vals [MiB]:                                        1
  HFX_MEM_INFO| Total compression factor ERI's RAM:                         1.32
  HFX_MEM_INFO| Total memory consumption ERI's disk [MiB]:                     0
  HFX_MEM_INFO| Total compression factor ERI's disk:                        0.00
  HFX_MEM_INFO| Size of density/Fock matrix [MiB]:                             0
  HFX_MEM_INFO| Size of buffers [MiB]:                                         0
  HFX_MEM_INFO| Est. max. program size after HFX  [MiB]:                    2145

  RI_INFO| RI metric:                                          TRUNCATED COULOMB
  RI_INFO| Cutoff Radius [angstrom]:                                        3.00
  RI_INFO| Number of auxiliary basis functions:                              540
  GENERAL_INFO| Number of basis functions:                                   171
  GENERAL_INFO| Number of occupied orbitals:                                  12
  GENERAL_INFO| Number of virtual orbitals:                                  159
  MEMORY_INFO| Memory for 3-center integrals (compressed):             64.94 MiB
  MEMORY_INFO| Compression factor:                                          1.88

 *** WARNING in rpa_main.F:323 :: The required number of quadrature point ***
 *** exceeds the maximum possible in the Minimax quadrature scheme. The   ***
 *** number of quadrature point has been reset to 30.                     ***

  MEMORY_INFO| Memory of MO-contracted tensor (compressed):             7.88 MiB
  MEMORY_INFO| Compression factor:                                          1.88
  MINIMAX_INFO| Number of integration points:                                 30
  MINIMAX_INFO| Gap for the minimax approximation:                        0.1710
  MINIMAX_INFO| Range for the minimax approximation:                   1594.5124
  MINIMAX_INFO| Minimax parameters:                  Weights           Abscissas
                                                0.2231728609        0.1108812530
                                                0.2403880853        0.3411851422
                                                0.2764280723        0.5979133364
                                                0.3346325023        0.9014073385
                                                0.4203562974        1.2763237982
                                                0.5414776747        1.7538827610
                                                0.7091905654        2.3747605776
                                                0.9391628900        3.1929498828
                                                1.2531858317        4.2810105508
                                                1.6815035978        5.7372911273
                                                2.2661016625        7.6959315811
                                                3.0653559612       10.3407947796
                                                4.1606249042       13.9249606810
                                                5.6656284796       18.7981218955
                                                7.7398467769       25.4452447685
                                               10.6077516484       34.5413632655
                                               14.5865729756       47.0295984373
                                               20.1266986241       64.2328416088
                                               27.8711181258       88.0146918488
                                               38.7444337053      121.0134942462
                                               54.0900511125      166.9874067724
                                               75.8920263514      231.3347221295
                                              107.1622911487      321.9087991483
                                              152.6952254692      450.3778888666
                                              220.7553227686      634.7301874480
                                              327.4689504267      904.5705235299
                                              510.2806435705     1314.3969412127
                                              878.6794060713     1984.3966996699
                                             1881.9290815265     3267.0391061458
                                             7192.5080539254     6922.5602627914
  MINIMAX_INFO| Range for the minimax approximation:                   1594.5124
  MINIMAX_INFO| Gap:                                                      0.1710
  MINIMAX_INFO| Minimax parameters of the time grid: Weights           Abscissas
                                                0.0001676222        0.0000651227
                                                0.0004003379        0.0003475489
                                                0.0006597071        0.0008745994
                                                0.0009665403        0.0016826841
                                                0.0013509163        0.0028333812
                                                0.0018560128        0.0044245713
                                                0.0025415823        0.0066053503
                                                0.0034867924        0.0095940268
                                                0.0047943123        0.0136993654
                                                0.0065978988        0.0193475360
                                                0.0090741505        0.0271187395
                                                0.0124582405        0.0377975827
                                                0.0170640441        0.0524413068
                                                0.0233099829        0.0724708619
                                                0.0317525507        0.0997914798
                                                0.0431300452        0.1369516400
                                                0.0584197484        0.1873521824
                                                0.0789128922        0.2555210732
                                                0.1063134693        0.3474744558
                                                0.1428699165        0.4711920214
                                                0.1915542373        0.6372462229
                                                0.2563143893        0.8596443660
                                                0.3424502175        1.1569790377
                                                0.4572196142        1.5540568156
                                                0.6109201055        2.0843405370
                                                0.8190610281        2.7939394059
                                                1.1073605270        3.7489486018
                                                1.5253966066        5.0512579063
                                                2.1950466239        6.8810776001
                                                3.5981612703        9.6656255495
  MINIMAX_INFO| Maximum deviation of the imag. time fit:                2.00E-07
  MINIMAX_INFO| Number of integration points:                                 30
  MINIMAX_INFO| Minimax params (freq grid, scaled):  Weights           Abscissas
                                                0.0381546939        0.0189567865
                                                0.0410978906        0.0583306349
                                                0.0472594582        0.1022221083
                                                0.0572103644        0.1541088866
                                                0.0718661122        0.2182063880
                                                0.0925735991        0.2998521400
                                                0.1212465927        0.4060003651
                                                0.1605637553        0.5458819008
                                                0.2142506112        0.7319019285
                                                0.2874778540        0.9808745834
                                                0.3874235201        1.3157330727
                                                0.5240678370        1.7679114667
                                                0.7113202257        2.3806775191
                                                0.9686227963        3.2138163420
                                                1.3232410234        4.3502400887
                                                1.8135516829        5.9053557772
                                                2.4937899043        8.0404038688
                                                3.4409561395       10.9815521572
                                                4.7649789378       15.0474104046
                                                6.6239326936       20.6890426378
                                                9.2474924447       28.5489614213
                                               12.9748618436       39.5500845551
                                               18.3209750661       55.0350596233
                                               26.1055021178       76.9987463293
                                               37.7413801141      108.5164922591
                                               55.9856495355      154.6496797468
                                               87.2400062311      224.7155536591
                                              150.2232111420      339.2618995554
                                              321.7435481189      558.5485468995
                                             1229.6653916771     1183.5138331626
  MINIMAX_INFO| Number of integration points:                                 30
  MINIMAX_INFO| Minimax params (time grid, scaled):  Weights           Abscissas
                                                0.0009804489        0.0003809130
                                                0.0023416396        0.0020328689
                                                0.0038587317        0.0051156707
                                                0.0056534478        0.0098422861
                                                0.0079017239        0.0165728966
                                                0.0108561134        0.0258800196
                                                0.0148661185        0.0386357425
                                                0.0203948022        0.0561169853
                                                0.0280426937        0.0801297625
                                                0.0385921574        0.1131668089
                                                0.0530761464        0.1586218118
                                                0.0728702261        0.2210840605
                                                0.0998103027        0.3067375272
                                                0.1363437896        0.4238935740
                                                0.1857257090        0.5836962046
                                                0.2522744800        0.8010518798
                                                0.3417063810        1.0958526521
                                                0.4615740318        1.4945833145
                                                0.6218443567        2.0324332449
                                                0.8356688186        2.7560769228
                                                1.1204311384        3.7273543043
                                                1.4992235465        5.0281963431
                                                2.0030456771        6.7673540327
                                                2.6743500952        9.0899249815
                                                3.5733686652       12.1916386369
                                                4.7908179583       16.3421950517
                                                6.4771274874       21.9281954216
                                                8.9222868697       29.5456092520
                                               12.8391761109       40.2485150787
                                               21.0462163862       56.5357780102
  Pade approximation: more parameters than data points. Reset # of parameters.
  Number of pade parameters:                                                   9

  MEMORY_INFO| Memory cut:                                                     1
  SPARSITY_INFO| Eps filter for M virt/occ tensors:                     1.00E-09
  SPARSITY_INFO| Eps filter for P matrix:                               1.00E-08
  SPARSITY_INFO| Minimum tensor block size:                                    5

  RPA_LOW_SCALING_INFO| Info for time point   1
[...]
    17 ( vir )            5.9816         -1.1267          3.0143          7.8691
    18 ( vir )            6.5237         -2.6891          4.7733          8.6078
    19 ( vir )            7.5006         -1.0310          3.0162          9.4858
    20 ( vir )            8.1677         -1.2333          3.2004         10.1347
    21 ( vir )            8.2737         -1.5271          3.4951         10.2417
    22 ( vir )            8.3724         -1.0963          2.9252         10.2013
   
  GW HOMO-LUMO gap (eV)                                                  10.3430
  
  ------------------------------------------------------------------------------

  Total RI-RPA Time=                                                  104.221378


 ENERGY| Total FORCE_EVAL ( QS ) energy [a.u.]:             -225.287394382639604

 -------------------------------------------------------------------------------
 -                                                                             -
 -                                DBCSR STATISTICS                             -
 -                                                                             -
 -------------------------------------------------------------------------------
 COUNTER                                    TOTAL       BLAS       SMM       ACC
 flops    57 x    12 x    57               701784       0.0%    100.0%      0.0%
 flops    57 x    57 x    12               935712       0.0%    100.0%      0.0%
 flops    57 x    57 x    57              3333474       0.0%    100.0%      0.0%
 flops   171 x   171 x   171             10000422       0.0%    100.0%      0.0%
 flops   180 x   180 x   180           9447840000       0.0%    100.0%      0.0%
 flops inhomo. stacks                           0       0.0%      0.0%      0.0%
 flops total                         9.462811E+09       0.0%    100.0%      0.0%
 flops max/rank                      9.462811E+09       0.0%    100.0%      0.0%
 matmuls inhomo. stacks                         0       0.0%      0.0%      0.0%
 matmuls total                                841       0.0%    100.0%      0.0%
 number of processed stacks                    35       0.0%    100.0%      0.0%
 average stack size                                     0.0      24.0       0.0
 marketing flops                     9.452287E+09
 -------------------------------------------------------------------------------
 # multiplications                             35
 max memory usage/rank               2.611827E+09
 # max total images/rank                        1
 # max 3D layers                                1
 # MPI messages exchanged                       0
 -------------------------------------------------------------------------------
 -                                                                             -
 -                      DBCSR MESSAGE PASSING PERFORMANCE                      -
 -                                                                             -
 -------------------------------------------------------------------------------
 ROUTINE             CALLS      AVE VOLUME [Bytes]
 MP_Bcast                6                     12.
 MP_Allreduce          175                     11.
 MP_Alltoall          1604                 624220.
 MP_ISend              140                    171.
 MP_IRecv              140                    171.
 -------------------------------------------------------------------------------

 -------------------------------------------------------------------------------
 -                                                                             -
 -                                DBM STATISTICS                               -
 -                                                                             -
 -------------------------------------------------------------------------------
    M  x    N  x    K                                          COUNT     PERCENT
    ?  x    ?  x   ??                                       21292146      22.27%
   ??  x    ?  x   ??                                       15890661      16.62%
   ??  x    ?  x    ?                                        9707280      10.15%
   ??  x   ??  x   ??                                        8808394       9.21%
    ?  x   ??  x   ??                                        8554666       8.95%
   ??  x   ??  x    ?                                        7100590       7.43%
    ?  x    ?  x    ?                                        5942522       6.22%
    ?  x    ?  x  ???                                        4852003       5.08%
   ??  x    ?  x  ???                                        1944999       2.03%
    ?  x   ??  x  ???                                        1944022       2.03%
    ?  x  ???  x    ?                                        1820070       1.90%
  ???  x    ?  x    ?                                        1505768       1.58%
  ???  x    ?  x   ??                                        1155376       1.21%
  ???  x   ??  x    ?                                        1102434       1.15%
    ?  x  ???  x   ??                                         918540       0.96%
   ??  x  ???  x    ?                                         918540       0.96%
  ???  x   ??  x   ??                                         846184       0.89%
   ??  x   ??  x  ???                                         779289       0.82%
   ??  x  ???  x   ??                                         510300       0.53%
 -------------------------------------------------------------------------------

 -------------------------------------------------------------------------------
 -                                                                             -
 -                                GRID STATISTICS                              -
 -                                                                             -
 -------------------------------------------------------------------------------
 LP    KERNEL             BACKEND                              COUNT     PERCENT
 3     collocate ortho    CPU                                    432      10.61%
 3     integrate ortho    CPU                                    432      10.61%
 2     collocate ortho    CPU                                    408      10.02%
 2     integrate ortho    CPU                                    408      10.02%
 4     collocate ortho    CPU                                    370       9.09%
 4     integrate ortho    CPU                                    370       9.09%
 1     collocate ortho    CPU                                    288       7.08%
 1     integrate ortho    CPU                                    288       7.08%
 5     collocate ortho    CPU                                    240       5.90%
 5     integrate ortho    CPU                                    240       5.90%
 6     collocate ortho    CPU                                    120       2.95%
 6     integrate ortho    CPU                                    120       2.95%
 0     collocate ortho    CPU                                    108       2.65%
 0     integrate ortho    CPU                                    108       2.65%
 7     collocate ortho    CPU                                     48       1.18%
 7     integrate ortho    CPU                                     48       1.18%
 8     collocate ortho    CPU                                     12       0.29%
 8     integrate ortho    CPU                                     12       0.29%
 2     collocate general  CPU                                      6       0.15%
 2     integrate general  CPU                                      6       0.15%
 0     collocate general  CPU                                      3       0.07%
 0     integrate general  CPU                                      3       0.07%
 -------------------------------------------------------------------------------

 MEMORY| Estimated peak process memory [MiB]                                2965

 -------------------------------------------------------------------------------
 ----                             MULTIGRID INFO                            ----
 -------------------------------------------------------------------------------
 count for grid        1:           3527          cutoff [a.u.]          200.00
 count for grid        2:            846          cutoff [a.u.]           66.67
 count for grid        3:            254          cutoff [a.u.]           22.22
 count for grid        4:             22          cutoff [a.u.]            7.41
 total gridlevel count  :           4649

 -------------------------------------------------------------------------------
 -                                                                             -
 -                         MESSAGE PASSING PERFORMANCE                         -
 -                                                                             -
 -------------------------------------------------------------------------------

 ROUTINE             CALLS      AVE VOLUME [Bytes]
 MP_Group             2229
 MP_Bcast              840                   5941.
 MP_Allreduce         2585                   2149.
 MP_Sync              3545
 MP_Alltoall           618                     14.
 MP_Wait                10
 MP_comm_split         792
 MP_ISend               14                 333263.
 MP_IRecv               14                 333263.
 -------------------------------------------------------------------------------


 -------------------------------------------------------------------------------
 -                                                                             -
 -                           R E F E R E N C E S                               -
 -                                                                             -
 -------------------------------------------------------------------------------
 
 CP2K version 2024.1 (Development Version), the CP2K developers group (2024).
 CP2K is freely available from https://www.cp2k.org/ .

 Kuehne,Thomas D.; Iannuzzi,Marcella; Del Ben,Mauro;
 Rybkin,Vladimir V.; Seewald,Patrick; Stein,Frederick; Laino,Teodoro;
 Khaliullin,Rustam Z.; Schuett,Ole; Schiffmann,Florian; Golze,Dorothea;
 Wilhelm,Jan; Chulkov,Sergey; Bani-Hashemian,Mohammad Hossein;
 Weber,Valery; Borstnik,Urban; Taillefumier,Mathieu;
 Jakobovits,Alice Shoshana; Lazzaro,Alfio; Pabst,Hans; Mueller,Tiziano;
 Schade,Robert; Guidon,Manuel; Andermatt,Samuel; Holmberg,Nico;
 Schenter,Gregory K.; Hehn,Anna; Bussy,Augustin; Belleflamme,Fabian;
 Tabacchi,Gloria; Gloess,Andreas; Lass,Michael; Bethune,Iain;
 Mundy,Christopher J.; Plessl,Christian; Watkins,Matt;
 VandeVondele,Joost; Krack,Matthias; Hutter,Juerg. 
 The Journal of Chemical Physics, 152 (19), (2020). 
 CP2K: An electronic structure and molecular dynamics software package -
 Quickstep: Efficient and accurate electronic structure calculations.
 https://doi.org/10.1063/5.0007045

 Wilhelm, J; Golze, D; Talirz, L; Hutter, J; Pignedoli, CA. 
 JOURNAL OF PHYSICAL CHEMISTRY LETTERS, 9, 306-312 (2018). 
 Toward GW calculations on thousands of atoms.
 https://doi.org/10.1021/acs.jpclett.7b02740

 Wilhelm, J; Hutter, J. PHYSICAL REVIEW B, 95, 235123 (2017). 
 Periodic GW calculations in the Gaussian and plane-waves scheme.
 https://doi.org/10.1103/PhysRevB.95.235123

 Wilhelm, J; Del Ben, M; Hutter, J. 
 JOURNAL OF CHEMICAL THEORY AND COMPUTATION, 12, 3623-3635 (2016). 
 GW in the Gaussian and plane waves scheme with application to linear acenes.
 https://doi.org/10.1021/acs.jctc.6b00380

 Wilhelm, J; Seewald, P; Del Ben, M; Hutter, J. 
 JOURNAL OF CHEMICAL THEORY AND COMPUTATION, 12, 5851-5859 (2016). 
 Large-Scale Cubic-Scaling Random Phase Approximation Correlation.
 https://doi.org/10.1021/acs.jctc.6b00840

 Schuett, Ole; Messmer, Peter; Hutter, Juerg; VandeVondele, Joost. 
 Electronic Structure Calculations on Graphics Processing Units, John
 Wiley & Sons, Ltd, 173-190 (2016). 
 GPU-Accelerated Sparse Matrix-Matrix Multiplication for
 Linear Scaling Density Functional Theory.
 https://doi.org/10.1002/9781118670712.ch8

 Heinecke, A; Henry, G; Hutchinson, M; Pabst, H. 
 Proceedings of Intl. Supercomputing Conference, 981-991 (2016). 
 LIBXSMM: Accelerating Small Matrix Multiplications
 by Runtime Code Generation.
 https://doi.org/10.1109/SC.2016.83

 Del Ben, M; Schuett, O; Wentz, T; Messmer, P; Hutter, J;
 VandeVondele, J. 
 COMPUTER PHYSICS COMMUNICATIONS, 187, 120-129 (2015). 
 Enabling simulation at the fifth rung of DFT: Large scale RPA
 calculations with excellent time to solution.
 https://doi.org/10.1016/j.cpc.2014.10.021

 Borstnik, U; VandeVondele, J; Weber, V; Hutter, J. 
 PARALLEL COMPUTING, 40 (5-6), 47-58 (2014). 
 Sparse matrix multiplication: The distributed block-compressed sparse
 row library.
 https://doi.org/10.1016/j.parco.2014.03.012

 Hutter, J; Iannuzzi, M; Schiffmann, F; VandeVondele, J. 
 WIREs Comput Mol Sci., 4 (1), 15-25 (2014). 
 CP2K: atomistic simulations of condensed matter systems.
 https://doi.org/10.1002/wcms.1159

 Del Ben, M; Hutter, J; VandeVondele, J. 
 JOURNAL OF CHEMICAL THEORY AND COMPUTATION, 9 (6), 2654-2671 (2013). 
 Electron Correlation in the Condensed Phase from a Resolution of
 Identity Approach Based on the Gaussian and Plane Waves Scheme.
 https://doi.org/10.1021/ct4002202

 Del Ben, M; Hutter, J; VandeVondele, J. 
 JOURNAL OF CHEMICAL THEORY AND COMPUTATION, 8 (11), 4177-4188 (2012). 
 Second-Order Moller-Plesset Perturbation Theory in the Condensed Phase:
 An Efficient and Massively Parallel Gaussian and Plane Waves Approach.
 https://doi.org/10.1021/ct300531w

 Guidon, M; Hutter, J; VandeVondele, J. 
 JOURNAL OF CHEMICAL THEORY AND COMPUTATION, 5 (11), 3010-3021 (2009). 
 Robust Periodic Hartree-Fock Exchange for Large-Scale Simulations Using
 Gaussian Basis Sets.
 https://doi.org/10.1021/ct900494g

 Guidon, M; Schiffmann, F; Hutter, J; VandeVondele, J. 
 JOURNAL OF CHEMICAL PHYSICS, 128 (21), 214104 (2008). 
 Ab initio molecular dynamics using hybrid density functionals.
 https://doi.org/10.1063/1.2931945

 Frigo, M; Johnson, SG. 
 PROCEEDINGS OF THE IEEE, 93 (2), 216-231 (2005). 
 The design and implementation of FFTW3.
 https://doi.org/10.1109/JPROC.2004.840301

 Lippert, G; Hutter, J; Parrinello, M. 
 THEORETICAL CHEMISTRY ACCOUNTS, 103 (2), 124-140 (1999). 
 The Gaussian and augmented-plane-wave density functional method for ab
 initio molecular dynamics simulations.
 https://doi.org/10.1007/s002140050523

 Krack, M; Parrinello, M. 
 PHYSICAL CHEMISTRY CHEMICAL PHYSICS, 2 (10), 2105-2112 (2000). 
 All-electron ab-initio molecular dynamics.
 https://doi.org/10.1039/b001167n

 Martyna, GJ; Tuckerman, ME. 
 JOURNAL OF CHEMICAL PHYSICS, 110 (6), 2810-2821 (1999). 
 A reciprocal space based method for treating long range interactions in
 ab initio and force-field-based calculations in clusters.
 https://doi.org/10.1063/1.477923

 Perdew, JP; Burke, K; Ernzerhof, M. 
 PHYSICAL REVIEW LETTERS, 77 (18), 3865-3868 (1996). 
 Generalized gradient approximation made simple.
 https://doi.org/10.1103/PhysRevLett.77.3865


 -------------------------------------------------------------------------------
 -                                                                             -
 -                                T I M I N G                                  -
 -                                                                             -
 -------------------------------------------------------------------------------
 SUBROUTINE                       CALLS  ASD         SELF TIME        TOTAL TIME
                                MAXIMUM       AVERAGE  MAXIMUM  AVERAGE  MAXIMUM
 CP2K                                 1  1.0    0.034    0.034  159.422  159.422
 qs_energies                          1  2.0    0.000    0.000  157.546  157.546
 mp2_main                             1  3.0    0.000    0.000  135.002  135.002
 mp2_gpw_main                         1  4.0    0.000    0.000  104.221  104.221
 rpa_ri_compute_en                    1  5.0    0.000    0.000  102.166  102.166
 rpa_num_int                          1  6.0    0.001    0.001  102.166  102.166
 dbt_total                         1029  9.1    0.004    0.004   93.646   93.646
 compute_mat_P_omega                  1  7.0    0.005    0.005   87.110   87.110
 compute_mat_P_omega_contract        30  8.0    1.320    1.320   86.600   86.600
 dbt_contract                       181 11.0    0.009    0.009   81.103   81.103
 dbt_tas_total                      396 11.9    1.027    1.027   73.533   73.533
 dbt_tas_multiply                   216 12.5    0.001    0.001   73.295   73.295
 dbt_tas_dbm                        216 14.5    0.001    0.001   59.218   59.218
 dbm_multiply                       216 16.5   59.215   59.215   59.215   59.215
 integrate_four_center                3  7.0    0.001    0.001   50.903   50.903
 integrate_four_center_main           3  8.0    0.000    0.000   47.144   47.144
 integrate_four_center_bin            3  9.0   47.144   47.144   47.144   47.144
 dbt_tas_mm_1N                      122 15.8    0.000    0.000   34.786   34.786
 compute_vec_Sigma_x_minus_vxc_       1  4.0    0.000    0.000   30.769   30.769
 qs_ks_build_kohn_sham_matrix         2  6.0    0.000    0.000   30.566   30.566
 hfx_ks_matrix                        2  7.0    0.000    0.000   28.572   28.572
 compute_mat_P_omega_calc_M_occ      30  9.0    1.271    1.271   25.129   25.129
 compute_mat_P_omega_calc_P_t        30  9.0    0.000    0.000   24.308   24.308
 compute_mat_P_omega_calc_M_vir      30  9.0    0.000    0.000   24.144   24.144
 scf_env_do_scf                       1  3.0    0.000    0.000   22.295   22.295
 scf_env_do_scf_inner_loop            1  4.0    0.000    0.000   22.295   22.295
 qs_ks_update_qs_env                  1  5.0    0.000    0.000   22.131   22.131
 rebuild_ks_matrix                    1  6.0    0.000    0.000   22.131   22.131
 dbt_tas_mm_2                        31 15.1    0.000    0.000   20.943   20.943
 dbt_copy                           368 10.2    0.010    0.010   12.299   12.299
 compute_QP_energies                  1  7.0    0.007    0.007   12.018   12.018
 compute_self_energy_cubic_gw         1  8.0    0.011    0.011   11.973   11.973
 contract_cubic_gw                   60  9.0    0.000    0.000    9.743    9.743
 dbt_reshape                         93 11.9    5.857    5.857    7.685    7.685
 dbt_crop                           212 12.0    4.454    4.454    7.470    7.470
 compute_mat_P_omega_copy_M_occ      30  9.0    0.000    0.000    7.235    7.235
 convert_to_new_pgrid               648 14.5    0.005    0.005    6.181    6.181
 dbm_copy                           432 15.5    6.176    6.176    6.176    6.176
 dbt_tas_reserve_blocks_index      1449 14.1    1.133    1.133    5.309    5.309
 dbt_reserve_blocks_index           919 12.7    0.099    0.099    4.435    4.435
 dbt_reserve_blocks_index_array     767 12.1    0.002    0.002    4.430    4.430
 dbm_reserve_blocks                1665 15.1    4.389    4.389    4.389    4.389
 dbm_add                            216 14.5    3.686    3.686    3.686    3.686
 dbt_tas_mm_3N                       61 15.0    0.000    0.000    3.320    3.320
 -------------------------------------------------------------------------------

 The number of warnings for this run is : 1
 
 -------------------------------------------------------------------------------
  **** **** ******  **  PROGRAM ENDED AT                 2024-05-14 12:57:13.102
 ***** ** ***  *** **   PROGRAM RAN ON                               surface-mia
 **    ****   ******    PROGRAM RAN BY                                       mia
 ***** **    ** ** **   PROGRAM PROCESS ID                                 37479
  **** **  *******  **  PROGRAM STOPPED IN /home/mia/Dokumente/GW100/Paper/Fig_4
                                           /1_O3_PBE0
