 DBCSR| CPU Multiplication driver                                           XSMM (U)
 DBCSR| Multrec recursion limit                                              512 (U)
 DBCSR| Multiplication stack size                                           1000 (D)
 DBCSR| Maximum elements for images                                    UNLIMITED (U)
 DBCSR| Multiplicative factor virtual images                                   1 (U)
 DBCSR| Use multiplication densification                                       T (D)
 DBCSR| Multiplication size stacks                                             3 (U)
 DBCSR| Use memory pool for CPU allocation                                     F (U)
 DBCSR| Number of 3D layers                                               SINGLE (U)
 DBCSR| Use MPI memory allocation                                              F (U)
 DBCSR| Use RMA algorithm                                                      F (U)
 DBCSR| Use Communication thread                                               T (U)
 DBCSR| Communication thread load                                             87 (D)
 DBCSR| MPI: My process id                                                     0
 DBCSR| MPI: Number of processes                                               1
 DBCSR| OMP: Current number of threads                                         1
 DBCSR| OMP: Max number of threads                                             1
 DBCSR| Split modifier for TAS multiplication algorithm                  1.0E+00 (U)


  **** **** ******  **  PROGRAM STARTED AT               2024-05-14 10:39:10.733
 ***** ** ***  *** **   PROGRAM STARTED ON                           surface-mia
 **    ****   ******    PROGRAM STARTED BY                                   mia
 ***** **    ** ** **   PROGRAM PROCESS ID                                 16775
  **** **  *******  **  PROGRAM STARTED IN /home/mia/Dokumente/GW100/Paper/Low_S
                                           caling/0_O3_PBE

 CP2K| version string:                 CP2K version 2024.1 (Development Version)
 CP2K| source code revision number:                                  git:0de0cc2
 CP2K| cp2kflags: omp libint fftw3 libxc parallel mpi_f08 scalapack xsmm        
 CP2K| is freely available from                            https://www.cp2k.org/
 CP2K| Program compiled at                         Do 28. Mär 14:08:46 CET 2024
 CP2K| Program compiled on                                           surface-mia
 CP2K| Program compiled for                                                local
 CP2K| Data directory path                    /home/mia/Dokumente/Code/cp2k/data
 CP2K| Input file name                                                    GW.inp

 GLOBAL| Force Environment number                                              1
 GLOBAL| Basis set file name                              BASIS_def2_QZVP_RI_ALL
 GLOBAL| Potential file name                                           POTENTIAL
 GLOBAL| MM Potential file name                                     MM_POTENTIAL
 GLOBAL| Coordinate file name                                      __STD_INPUT__
 GLOBAL| Method name                                                        CP2K
 GLOBAL| Project name                                                   ALL_ELEC
 GLOBAL| Run type                                                         ENERGY
 GLOBAL| FFT library                                                       FFTW3
 GLOBAL| Diagonalization library                                       ScaLAPACK
 GLOBAL| DGEMM library                                                      BLAS
 GLOBAL| Orthonormality check for eigenvectors                          DISABLED
 GLOBAL| Matrix multiplication library                                 ScaLAPACK
 GLOBAL| All-to-all communication in single precision                          F
 GLOBAL| FFTs using library dependent lengths                                  F
 GLOBAL| Grid backend                                                       AUTO
 GLOBAL| Global print level                                               MEDIUM
 GLOBAL| MPI I/O enabled                                                       T
 GLOBAL| Total number of message passing processes                             1
 GLOBAL| Number of threads for this process                                    1
 GLOBAL| This output is from process                                           0
 GLOBAL| Stack size for threads created by OpenMP (OMP_STACKSIZE)        default
 GLOBAL| CPU model name           11th Gen Intel(R) Core(TM) i5-1135G7 @ 2.40GHz
 GLOBAL| CPUID                                                              1003
 GLOBAL| Compiled for CPUID                                                    0

 *** HINT in environment.F:920 :: The compiler target flags (generic) used ***
 *** to build this binary cannot exploit all extensions of this CPU model  ***
 *** (x86_avx512). Consider compiler target flags as part of FCFLAGS and   ***
 *** CFLAGS (ARCH file).                                                   ***


 MEMORY| system memory details [Kb]
 MEMORY|                        rank 0           min           max       average
 MEMORY| MemTotal              7965312       7965312       7965312       7965312
 MEMORY| MemFree               4626020       4626020       4626020       4626020
 MEMORY| Buffers                 49040         49040         49040         49040
 MEMORY| Cached                1187356       1187356       1187356       1187356
 MEMORY| Slab                   267328        267328        267328        267328
 MEMORY| SReclaimable           122504        122504        122504        122504
 MEMORY| MemLikelyFree         5984920       5984920       5984920       5984920


 *** Fundamental physical constants (SI units) ***

 *** Literature: B. J. Mohr and B. N. Taylor,
 ***             CODATA recommended values of the fundamental physical
 ***             constants: 2006, Web Version 5.1
 ***             http://physics.nist.gov/constants

 Speed of light in vacuum [m/s]                             2.99792458000000E+08
 Magnetic constant or permeability of vacuum [N/A**2]       1.25663706143592E-06
 Electric constant or permittivity of vacuum [F/m]          8.85418781762039E-12
 Planck constant (h) [J*s]                                  6.62606896000000E-34
 Planck constant (h-bar) [J*s]                              1.05457162825177E-34
 Elementary charge [C]                                      1.60217648700000E-19
 Electron mass [kg]                                         9.10938215000000E-31
 Electron g factor [ ]                                     -2.00231930436220E+00
 Proton mass [kg]                                           1.67262163700000E-27
 Fine-structure constant                                    7.29735253760000E-03
 Rydberg constant [1/m]                                     1.09737315685270E+07
 Avogadro constant [1/mol]                                  6.02214179000000E+23
 Boltzmann constant [J/K]                                   1.38065040000000E-23
 Atomic mass unit [kg]                                      1.66053878200000E-27
 Bohr radius [m]                                            5.29177208590000E-11

 *** Conversion factors ***

 [u] -> [a.u.]                                              1.82288848426455E+03
 [Angstrom] -> [Bohr] = [a.u.]                              1.88972613288564E+00
 [a.u.] = [Bohr] -> [Angstrom]                              5.29177208590000E-01
 [a.u.] -> [s]                                              2.41888432650478E-17
 [a.u.] -> [fs]                                             2.41888432650478E-02
 [a.u.] -> [J]                                              4.35974393937059E-18
 [a.u.] -> [N]                                              8.23872205491840E-08
 [a.u.] -> [K]                                              3.15774647902944E+05
 [a.u.] -> [kJ/mol]                                         2.62549961709828E+03
 [a.u.] -> [kcal/mol]                                       6.27509468713739E+02
 [a.u.] -> [Pa]                                             2.94210107994716E+13
 [a.u.] -> [bar]                                            2.94210107994716E+08
 [a.u.] -> [atm]                                            2.90362800883016E+08
 [a.u.] -> [eV]                                             2.72113838565563E+01
 [a.u.] -> [Hz]                                             6.57968392072181E+15
 [a.u.] -> [1/cm] (wave numbers)                            2.19474631370540E+05
 [a.u./Bohr**2] -> [1/cm]                                   5.14048714338585E+03
 

 CELL_TOP| Volume [angstrom^3]:                                      1000.000000
 CELL_TOP| Vector a [angstrom    10.000     0.000     0.000   |a| =    10.000000
 CELL_TOP| Vector b [angstrom     0.000    10.000     0.000   |b| =    10.000000
 CELL_TOP| Vector c [angstrom     0.000     0.000    10.000   |c| =    10.000000
 CELL_TOP| Angle (b,c), alpha [degree]:                                90.000000
 CELL_TOP| Angle (a,c), beta  [degree]:                                90.000000
 CELL_TOP| Angle (a,b), gamma [degree]:                                90.000000
 CELL_TOP| Numerically orthorhombic:                                         YES
 CELL_TOP| Periodicity                                                      NONE

 GENERATE|  Preliminary Number of Bonds generated:                             0
 GENERATE|  Achieved consistency in connectivity generation.

 CELL| Volume [angstrom^3]:                                          1000.000000
 CELL| Vector a [angstrom]:      10.000     0.000     0.000   |a| =    10.000000
 CELL| Vector b [angstrom]:       0.000    10.000     0.000   |b| =    10.000000
 CELL| Vector c [angstrom]:       0.000     0.000    10.000   |c| =    10.000000
 CELL| Angle (b,c), alpha [degree]:                                    90.000000
 CELL| Angle (a,c), beta  [degree]:                                    90.000000
 CELL| Angle (a,b), gamma [degree]:                                    90.000000
 CELL| Numerically orthorhombic:                                             YES
 CELL| Periodicity                                                          NONE

 CELL_REF| Volume [angstrom^3]:                                      1000.000000
 CELL_REF| Vector a [angstrom    10.000     0.000     0.000   |a| =    10.000000
 CELL_REF| Vector b [angstrom     0.000    10.000     0.000   |b| =    10.000000
 CELL_REF| Vector c [angstrom     0.000     0.000    10.000   |c| =    10.000000
 CELL_REF| Angle (b,c), alpha [degree]:                                90.000000
 CELL_REF| Angle (a,c), beta  [degree]:                                90.000000
 CELL_REF| Angle (a,b), gamma [degree]:                                90.000000
 CELL_REF| Numerically orthorhombic:                                         YES
 CELL_REF| Periodicity                                                      NONE

 *******************************************************************************
 *******************************************************************************
 **                                                                           **
 **     #####                         ##              ##                      **
 **    ##   ##            ##          ##              ##                      **
 **   ##     ##                       ##            ######                    **
 **   ##     ##  ##   ##  ##   #####  ##  ##   ####   ##    #####    #####    **
 **   ##     ##  ##   ##  ##  ##      ## ##   ##      ##   ##   ##  ##   ##   **
 **   ##  ## ##  ##   ##  ##  ##      ####     ###    ##   ######   ######    **
 **    ##  ###   ##   ##  ##  ##      ## ##      ##   ##   ##       ##        **
 **     #######   #####   ##   #####  ##  ##  ####    ##    #####   ##        **
 **           ##                                                    ##        **
 **                                                                           **
 **                                                ... make the atoms dance   **
 **                                                                           **
 **            Copyright (C) by CP2K developers group (2000-2024)             **
 **                      J. Chem. Phys. 152, 194103 (2020)                    **
 **                                                                           **
 *******************************************************************************

 DFT| Spin restricted Kohn-Sham (RKS) calculation                            RKS
 DFT| Multiplicity                                                             1
 DFT| Number of spin states                                                    1
 DFT| Charge                                                                   0
 DFT| Self-interaction correction (SIC)                                       NO
 DFT| Cutoffs: density                                              1.000000E-10
 DFT|          gradient                                             1.000000E-10
 DFT|          tau                                                  1.000000E-10
 DFT|          cutoff_smoothing_range                               0.000000E+00
 DFT| XC density smoothing                                                  NONE
 DFT| XC derivatives                                                          PW

 FUNCTIONAL| PBE:
 FUNCTIONAL| J.P.Perdew, K.Burke, M.Ernzerhof, Phys. Rev. Letter, vol. 77, n 18,
 FUNCTIONAL|  pp. 3865-3868, (1996) {spin unpolarized}                          


 QS| Method:                                                                GAPW
 QS| Density plane wave grid type                        NON-SPHERICAL FULLSPACE
 QS| Number of grid levels:                                                    4
 QS| Density cutoff [a.u.]:                                                200.0
 QS| Multi grid cutoff [a.u.]: 1) grid level                               200.0
 QS|                           2) grid level                                66.7
 QS|                           3) grid level                                22.2
 QS|                           4) grid level                                 7.4
 QS| Grid level progression factor:                                          3.0
 QS| Relative density cutoff [a.u.]:                                        25.0
 QS| Interaction thresholds: eps_pgf_orb:                                1.0E-05
 QS|                         eps_filter_matrix:                          0.0E+00
 QS|                         eps_core_charge:                            1.0E-12
 QS|                         eps_rho_gspace:                             1.0E-10
 QS|                         eps_rho_rspace:                             1.0E-10
 QS|                         eps_gvg_rspace:                             1.0E-05
 QS|                         eps_ppl:                                    1.0E-02
 QS|                         eps_ppnl:                                   1.0E-07
 QS| GAPW|      One center basis from orbital basis primitives
 QS| GAPW|                   eps_fit:                                    1.0E-04
 QS| GAPW|                   eps_iso:                                    1.0E-12
 QS| GAPW|                   eps_svd:                                    1.0E-08
 QS| GAPW|                   eps_cpc:                                    1.0E-10
 QS| GAPW|   atom-r-grid: quadrature:                                     GC_LOG
 QS| GAPW|      atom-s-grid:  max l :                                          8
 QS| GAPW|      max_l_rho0 :                                                   2


 ATOMIC KIND INFORMATION

  1. Atomic kind: O                                     Number of atoms:       3

     Orbital Basis Set                                                 def2-QZVP

       Number of orbital shell sets:                                          17
       Number of orbital shells:                                              17
       Number of primitive Cartesian functions:                               29
       Number of Cartesian basis functions:                                   72
       Number of spherical basis functions:                                   57
       Norm type:                                                              2

       Normalised Cartesian orbitals:

                        Set   Shell   Orbital            Exponent    Coefficient

                          1       1    1px               0.128640       0.109815
                          1       1    1py               0.128640       0.109815
                          1       1    1pz               0.128640       0.109815

                          2       1    1s                0.197727       0.211329

                          3       1    1px               0.336177       0.364880
                          3       1    1py               0.336177       0.364880
                          3       1    1pz               0.336177       0.364880

                          4       1    1dx2              0.444000       0.397493
                          4       1    1dxy              0.444000       0.688478
                          4       1    1dxz              0.444000       0.688478
                          4       1    1dy2              0.444000       0.397493
                          4       1    1dyz              0.444000       0.688478
                          4       1    1dz2              0.444000       0.397493

                          5       1    1s                0.518772       0.435655

                          6       1    1px               0.842824       1.151095
                          6       1    1py               0.842824       1.151095
                          6       1    1pz               0.842824       1.151095

                          7       1    1fx3              0.859000       1.045777
                          7       1    1fx2y             0.859000       2.338428
                          7       1    1fx2z             0.859000       2.338428
                          7       1    1fxy2             0.859000       2.338428
                          7       1    1fxyz             0.859000       4.050277
                          7       1    1fxz2             0.859000       2.338428
                          7       1    1fy3              0.859000       1.045777
                          7       1    1fy2z             0.859000       2.338428
                          7       1    1fyz2             0.859000       2.338428
                          7       1    1fz3              0.859000       1.045777

                          8       1    1dx2              1.300000       2.605016
                          8       1    1dxy              1.300000       4.512019
                          8       1    1dxz              1.300000       4.512019
                          8       1    1dy2              1.300000       2.605016
                          8       1    1dyz              1.300000       4.512019
                          8       1    1dz2              1.300000       2.605016

                          9       1    1s                1.325535       0.880448

                         10       1    1gx4              1.846000       6.005824
                         10       1    1gx3y             1.846000      15.889916
                         10       1    1gx3z             1.846000      15.889916
                         10       1    1gx2y2            1.846000      20.513794
                         10       1    1gx2yz            1.846000      35.530933
                         10       1    1gx2z2            1.846000      20.513794
                         10       1    1gxy3             1.846000      15.889916
                         10       1    1gxy2z            1.846000      35.530933
                         10       1    1gxyz2            1.846000      35.530933
                         10       1    1gxz3             1.846000      15.889916
                         10       1    1gy4              1.846000       6.005824
                         10       1    1gy3z             1.846000      15.889916
                         10       1    1gy2z2            1.846000      20.513794
                         10       1    1gyz3             1.846000      15.889916
                         10       1    1gz4              1.846000       6.005824

                         11       1    1px             191.152558       2.569255
                                                        45.233357       3.383308
                                                        14.353466       3.764009
                                                         5.242237       3.495516
                                                         2.079242       2.436773
                         11       1    1py             191.152558       2.569255
                                                        45.233357       3.383308
                                                        14.353466       3.764009
                                                         5.242237       3.495516
                                                         2.079242       2.436773
                         11       1    1pz             191.152558       2.569255
                                                        45.233357       3.383308
                                                        14.353466       3.764009
                                                         5.242237       3.495516
                                                         2.079242       2.436773

                         12       1    1fx3              2.666000      13.370258
                         12       1    1fx2y             2.666000      29.896805
                         12       1    1fx2z             2.666000      29.896805
                         12       1    1fxy2             2.666000      29.896805
                         12       1    1fxyz             2.666000      51.782785
                         12       1    1fxz2             2.666000      29.896805
                         12       1    1fy3              2.666000      13.370258
                         12       1    1fy2z             2.666000      29.896805
                         12       1    1fyz2             2.666000      29.896805
                         12       1    1fz3              2.666000      13.370258

                         13       1    1dx2              3.775000      16.827288
                         13       1    1dxy              3.775000      29.145718
                         13       1    1dxz              3.775000      29.145718
                         13       1    1dy2              3.775000      16.827288
                         13       1    1dyz              3.775000      29.145718
                         13       1    1dz2              3.775000      16.827288

                         14       1    1s                4.094773       2.051552

                         15       1    1s                9.282282       3.790104

                         16       1    1s           116506.469080       0.323542
                                                     17504.349724       0.604284
                                                      3993.451323       1.042947
                                                      1133.006319       1.694135
                                                       369.995696       2.585616
                                                       133.620743       3.631450
                                                        52.035644       4.414414
                                                        21.461939       4.188022

                         17       1    1s               89.835051       1.972527
                                                        26.428011       7.687249

     RI Auxiliary Basis Set                                                RI-5Z

       Number of orbital shell sets:                                          38
       Number of orbital shells:                                              38
       Number of primitive Cartesian functions:                               38
       Number of Cartesian basis functions:                                  259
       Number of spherical basis functions:                                  180
       Norm type:                                                              2

       Normalised Cartesian orbitals:

                        Set   Shell   Orbital            Exponent    Coefficient

                          1       1    1s                0.251005       0.252739

                          2       1    1dx2              0.303063       0.203747
                          2       1    1dxy              0.303063       0.352901
                          2       1    1dxz              0.303063       0.352901
                          2       1    1dy2              0.303063       0.203747
                          2       1    1dyz              0.303063       0.352901
                          2       1    1dz2              0.303063       0.203747

                          3       1    1px               0.416519       0.476962
                          3       1    1py               0.416519       0.476962
                          3       1    1pz               0.416519       0.476962

                          4       1    1s                0.474911       0.407727

                          5       1    1fx3              0.621013       0.504001
                          5       1    1fx2y             0.621013       1.126979
                          5       1    1fx2z             0.621013       1.126979
                          5       1    1fxy2             0.621013       1.126979
                          5       1    1fxyz             0.621013       1.951986
                          5       1    1fxz2             0.621013       1.126979
                          5       1    1fy3              0.621013       0.504001
                          5       1    1fy2z             0.621013       1.126979
                          5       1    1fyz2             0.621013       1.126979
                          5       1    1fz3              0.621013       0.504001

                          6       1    1px               0.696641       0.907197
                          6       1    1py               0.696641       0.907197
                          6       1    1pz               0.696641       0.907197

                          7       1    1dx2              0.719024       0.924082
                          7       1    1dxy              0.719024       1.600557
                          7       1    1dxz              0.719024       1.600557
                          7       1    1dy2              0.719024       0.924082
                          7       1    1dyz              0.719024       1.600557
                          7       1    1dz2              0.719024       0.924082

                          8       1    1gx4              1.007810       1.136912
                          8       1    1gx3y             1.007810       3.007986
                          8       1    1gx3z             1.007810       3.007986
                          8       1    1gx2y2            1.007810       3.883293
                          8       1    1gx2yz            1.007810       6.726061
                          8       1    1gx2z2            1.007810       3.883293
                          8       1    1gxy3             1.007810       3.007986
                          8       1    1gxy2z            1.007810       6.726061
                          8       1    1gxyz2            1.007810       6.726061
                          8       1    1gxz3             1.007810       3.007986
                          8       1    1gy4              1.007810       1.136912
                          8       1    1gy3z             1.007810       3.007986
                          8       1    1gy2z2            1.007810       3.883293
                          8       1    1gyz3             1.007810       3.007986
                          8       1    1gz4              1.007810       1.136912

                          9       1    1s                1.058590       0.743800

                         10       1    1fx3              1.185310       2.158124
                         10       1    1fx2y             1.185310       4.825711
                         10       1    1fx2z             1.185310       4.825711
                         10       1    1fxy2             1.185310       4.825711
                         10       1    1fxyz             1.185310       8.358377
                         10       1    1fxz2             1.185310       4.825711
                         10       1    1fy3              1.185310       2.158124
                         10       1    1fy2z             1.185310       4.825711
                         10       1    1fyz2             1.185310       4.825711
                         10       1    1fz3              1.185310       2.158124

                         11       1    1px               1.274280       1.929839
                         11       1    1py               1.274280       1.929839
                         11       1    1pz               1.274280       1.929839

                         12       1    1dx2              1.442130       3.123685
                         12       1    1dxy              1.442130       5.410380
                         12       1    1dxz              1.442130       5.410380
                         12       1    1dy2              1.442130       3.123685
                         12       1    1dyz              1.442130       5.410380
                         12       1    1dz2              1.442130       3.123685

                         13       1    1hx5              1.724010       4.356106
                         13       1    1hx4y             1.724010      13.068318
                         13       1    1hx4z             1.724010      13.068318
                         13       1    1hx3y2            1.724010      19.962186
                         13       1    1hx3yz            1.724010      34.575521
                         13       1    1hx3z2            1.724010      19.962186
                         13       1    1hx2y3            1.724010      19.962186
                         13       1    1hx2y2z           1.724010      44.636805
                         13       1    1hx2yz2           1.724010      44.636805
                         13       1    1hx2z3            1.724010      19.962186
                         13       1    1hxy4             1.724010      13.068318
                         13       1    1hxy3z            1.724010      34.575521
                         13       1    1hxy2z2           1.724010      44.636805
                         13       1    1hxyz3            1.724010      34.575521
                         13       1    1hxz4             1.724010      13.068318
                         13       1    1hy5              1.724010       4.356106
                         13       1    1hy4z             1.724010      13.068318
                         13       1    1hy3z2            1.724010      19.962186
                         13       1    1hy2z3            1.724010      19.962186
                         13       1    1hyz4             1.724010      13.068318
                         13       1    1hz5              1.724010       4.356106

                         14       1    1s                1.940030       1.171565

                         15       1    1gx4              2.038250       7.886665
                         15       1    1gx3y             2.038250      20.866155
                         15       1    1gx3z             2.038250      20.866155
                         15       1    1gx2y2            2.038250      26.938091
                         15       1    1gx2yz            2.038250      46.658142
                         15       1    1gx2z2            2.038250      26.938091
                         15       1    1gxy3             2.038250      20.866155
                         15       1    1gxy2z            2.038250      46.658142
                         15       1    1gxyz2            2.038250      46.658142
                         15       1    1gxz3             2.038250      20.866155
                         15       1    1gy4              2.038250       7.886665
                         15       1    1gy3z             2.038250      20.866155
                         15       1    1gy2z2            2.038250      26.938091
                         15       1    1gyz3             2.038250      20.866155
                         15       1    1gz4              2.038250       7.886665

                         16       1    1fx3              2.093740       7.763019
                         16       1    1fx2y             2.093740      17.358638
                         16       1    1fx2z             2.093740      17.358638
                         16       1    1fxy2             2.093740      17.358638
                         16       1    1fxyz             2.093740      30.066042
                         16       1    1fxz2             2.093740      17.358638
                         16       1    1fy3              2.093740       7.763019
                         16       1    1fy2z             2.093740      17.358638
                         16       1    1fyz2             2.093740      17.358638
                         16       1    1fz3              2.093740       7.763019

                         17       1    1dx2              2.719410       9.478512
                         17       1    1dxy              2.719410      16.417264
                         17       1    1dxz              2.719410      16.417264
                         17       1    1dy2              2.719410       9.478512
                         17       1    1dyz              2.719410      16.417264
                         17       1    1dz2              2.719410       9.478512

                         18       1    1px               2.756880       5.063635
                         18       1    1py               2.756880       5.063635
                         18       1    1pz               2.756880       5.063635

                         19       1    1hx5              3.223120      33.284552
                         19       1    1hx4y             3.223120      99.853655
                         19       1    1hx4z             3.223120      99.853655
                         19       1    1hx3y2            3.223120     152.528977
                         19       1    1hx3yz            3.223120     264.187938
                         19       1    1hx3z2            3.223120     152.528977
                         19       1    1hx2y3            3.223120     152.528977
                         19       1    1hx2y2z           3.223120     341.065161
                         19       1    1hx2yz2           3.223120     341.065161
                         19       1    1hx2z3            3.223120     152.528977
                         19       1    1hxy4             3.223120      99.853655
                         19       1    1hxy3z            3.223120     264.187938
                         19       1    1hxy2z2           3.223120     341.065161
                         19       1    1hxyz3            3.223120     264.187938
                         19       1    1hxz4             3.223120      99.853655
                         19       1    1hy5              3.223120      33.284552
                         19       1    1hy4z             3.223120      99.853655
                         19       1    1hy3z2            3.223120     152.528977
                         19       1    1hy2z3            3.223120     152.528977
                         19       1    1hyz4             3.223120      99.853655
                         19       1    1hz5              3.223120      33.284552

                         20       1    1s                3.595370       1.860878

                         21       1    1fx3              3.721040      28.310609
                         21       1    1fx2y             3.721040      63.304446
                         21       1    1fx2z             3.721040      63.304446
                         21       1    1fxy2             3.721040      63.304446
                         21       1    1fxyz             3.721040     109.646517
                         21       1    1fxz2             3.721040      63.304446
                         21       1    1fy3              3.721040      28.310609
                         21       1    1fy2z             3.721040      63.304446
                         21       1    1fyz2             3.721040      63.304446
                         21       1    1fz3              3.721040      28.310609

                         22       1    1gx4              3.883140      46.418255
                         22       1    1gx3y             3.883140     122.811159
                         22       1    1gx3z             3.883140     122.811159
                         22       1    1gx2y2            3.883140     158.548524
                         22       1    1gx2yz            3.883140     274.614099
                         22       1    1gx2z2            3.883140     158.548524
                         22       1    1gxy3             3.883140     122.811159
                         22       1    1gxy2z            3.883140     274.614099
                         22       1    1gxyz2            3.883140     274.614099
                         22       1    1gxz3             3.883140     122.811159
                         22       1    1gy4              3.883140      46.418255
                         22       1    1gy3z             3.883140     122.811159
                         22       1    1gy2z2            3.883140     158.548524
                         22       1    1gyz3             3.883140     122.811159
                         22       1    1gz4              3.883140      46.418255

                         23       1    1dx2              4.518780      23.051360
                         23       1    1dxy              4.518780      39.926127
                         23       1    1dxz              4.518780      39.926127
                         23       1    1dy2              4.518780      23.051360
                         23       1    1dyz              4.518780      39.926127
                         23       1    1dz2              4.518780      23.051360

                         24       1    1px               4.708760       9.887199
                         24       1    1py               4.708760       9.887199
                         24       1    1pz               4.708760       9.887199

                         25       1    1hx5              5.427550     181.053374
                         25       1    1hx4y             5.427550     543.160123
                         25       1    1hx4z             5.427550     543.160123
                         25       1    1hx3y2            5.427550     829.690793
                         25       1    1hx3yz            5.427550    1437.066608
                         25       1    1hx3z2            5.427550     829.690793
                         25       1    1hx2y3            5.427550     829.690793
                         25       1    1hx2y2z           5.427550    1855.245014
                         25       1    1hx2yz2           5.427550    1855.245014
                         25       1    1hx2z3            5.427550     829.690793
                         25       1    1hxy4             5.427550     543.160123
                         25       1    1hxy3z            5.427550    1437.066608
                         25       1    1hxy2z2           5.427550    1855.245014
                         25       1    1hxyz3            5.427550    1437.066608
                         25       1    1hxz4             5.427550     543.160123
                         25       1    1hy5              5.427550     181.053374
                         25       1    1hy4z             5.427550     543.160123
                         25       1    1hy3z2            5.427550     829.690793
                         25       1    1hy2z3            5.427550     829.690793
                         25       1    1hyz4             5.427550     543.160123
                         25       1    1hz5              5.427550     181.053374

                         26       1    1s                5.831540       2.674530

                         27       1    1fx3              6.442910      97.361912
                         27       1    1fx2y             6.442910     217.707854
                         27       1    1fx2z             6.442910     217.707854
                         27       1    1fxy2             6.442910     217.707854
                         27       1    1fxyz             6.442910     377.081065
                         27       1    1fxz2             6.442910     217.707854
                         27       1    1fy3              6.442910      97.361912
                         27       1    1fy2z             6.442910     217.707854
                         27       1    1fyz2             6.442910     217.707854
                         27       1    1fz3              6.442910      97.361912

                         28       1    1gx4              7.014070     235.968042
                         28       1    1gx3y             7.014070     624.312756
                         28       1    1gx3z             7.014070     624.312756
                         28       1    1gx2y2            7.014070     805.984303
                         28       1    1gx2yz            7.014070    1396.005762
                         28       1    1gx2z2            7.014070     805.984303
                         28       1    1gxy3             7.014070     624.312756
                         28       1    1gxy2z            7.014070    1396.005762
                         28       1    1gxyz2            7.014070    1396.005762
                         28       1    1gxz3             7.014070     624.312756
                         28       1    1gy4              7.014070     235.968042
                         28       1    1gy3z             7.014070     624.312756
                         28       1    1gy2z2            7.014070     805.984303
                         28       1    1gyz3             7.014070     624.312756
                         28       1    1gz4              7.014070     235.968042

                         29       1    1dx2              7.274420      53.034271
                         29       1    1dxy              7.274420      91.858053
                         29       1    1dxz              7.274420      91.858053
                         29       1    1dy2              7.274420      53.034271
                         29       1    1dyz              7.274420      91.858053
                         29       1    1dz2              7.274420      53.034271

                         30       1    1px              11.049300      28.714982
                         30       1    1py              11.049300      28.714982
                         30       1    1pz              11.049300      28.714982

                         31       1    1fx3             14.098700     567.031722
                         31       1    1fx2y            14.098700    1267.921477
                         31       1    1fx2z            14.098700    1267.921477
                         31       1    1fxy2            14.098700    1267.921477
                         31       1    1fxyz            14.098700    2196.104418
                         31       1    1fxz2            14.098700    1267.921477
                         31       1    1fy3             14.098700     567.031722
                         31       1    1fy2z            14.098700    1267.921477
                         31       1    1fyz2            14.098700    1267.921477
                         31       1    1fz3             14.098700     567.031722

                         32       1    1s               14.825500       5.384769

                         33       1    1dx2             21.988200     367.486504
                         33       1    1dxy             21.988200     636.505295
                         33       1    1dxz             21.988200     636.505295
                         33       1    1dy2             21.988200     367.486504
                         33       1    1dyz             21.988200     636.505295
                         33       1    1dz2             21.988200     367.486504

                         34       1    1px              25.465100      81.540209
                         34       1    1py              25.465100      81.540209
                         34       1    1pz              25.465100      81.540209

                         35       1    1s               28.708200       8.839233

                         36       1    1px              94.256600     418.629472
                         36       1    1py              94.256600     418.629472
                         36       1    1pz              94.256600     418.629472

                         37       1    1s              105.279000      23.424288

                         38       1    1s              488.561000      74.062640

       Atomic covalent radius [Angstrom]:                                  0.730

       Atomic van der Waals radius [Angstrom]:                             1.520

     The atoms of this atomic kind are PAW atoms (GAPW):
       Hard Gaussian function radius:                                      1.512
       Rho0 radius:                                                        1.512
       Maximum GTO radius used for PAW projector construction:            24.566

     GAPW Soft Basis Set                                          def2-QZVP_soft

       Number of orbital shell sets:                                          17
       Number of orbital shells:                                              17
       Number of primitive Cartesian functions:                               13
       Number of Cartesian basis functions:                                   72
       Number of spherical basis functions:                                   57
       Norm type:                                                              2

       Normalised Cartesian orbitals:

                        Set   Shell   Orbital            Exponent    Coefficient

                          1       1    1px               0.128640       0.109815
                          1       1    1py               0.128640       0.109815
                          1       1    1pz               0.128640       0.109815

                          2       1    1s                0.197727       0.211329

                          3       1    1px               0.336177       0.364880
                          3       1    1py               0.336177       0.364880
                          3       1    1pz               0.336177       0.364880

                          4       1    1dx2              0.444000       0.397493
                          4       1    1dxy              0.444000       0.688478
                          4       1    1dxz              0.444000       0.688478
                          4       1    1dy2              0.444000       0.397493
                          4       1    1dyz              0.444000       0.688478
                          4       1    1dz2              0.444000       0.397493

                          5       1    1s                0.518772       0.435655

                          6       1    1px               0.842824       1.151095
                          6       1    1py               0.842824       1.151095
                          6       1    1pz               0.842824       1.151095

                          7       1    1fx3              0.859000       1.045777
                          7       1    1fx2y             0.859000       2.338428
                          7       1    1fx2z             0.859000       2.338428
                          7       1    1fxy2             0.859000       2.338428
                          7       1    1fxyz             0.859000       4.050277
                          7       1    1fxz2             0.859000       2.338428
                          7       1    1fy3              0.859000       1.045777
                          7       1    1fy2z             0.859000       2.338428
                          7       1    1fyz2             0.859000       2.338428
                          7       1    1fz3              0.859000       1.045777

                          8       1    1dx2              1.300000       2.605016
                          8       1    1dxy              1.300000       4.512019
                          8       1    1dxz              1.300000       4.512019
                          8       1    1dy2              1.300000       2.605016
                          8       1    1dyz              1.300000       4.512019
                          8       1    1dz2              1.300000       2.605016

                          9       1    1s                1.325535       0.880448

                         10       1    1gx4              1.846000       6.005824
                         10       1    1gx3y             1.846000      15.889916
                         10       1    1gx3z             1.846000      15.889916
                         10       1    1gx2y2            1.846000      20.513794
                         10       1    1gx2yz            1.846000      35.530933
                         10       1    1gx2z2            1.846000      20.513794
                         10       1    1gxy3             1.846000      15.889916
                         10       1    1gxy2z            1.846000      35.530933
                         10       1    1gxyz2            1.846000      35.530933
                         10       1    1gxz3             1.846000      15.889916
                         10       1    1gy4              1.846000       6.005824
                         10       1    1gy3z             1.846000      15.889916
                         10       1    1gy2z2            1.846000      20.513794
                         10       1    1gyz3             1.846000      15.889916
                         10       1    1gz4              1.846000       6.005824

                         11       1    1px               2.079242       2.436773
                         11       1    1py               2.079242       2.436773
                         11       1    1pz               2.079242       2.436773

                         12       1    1fx3              2.666000      13.370258
                         12       1    1fx2y             2.666000      29.896805
                         12       1    1fx2z             2.666000      29.896805
                         12       1    1fxy2             2.666000      29.896805
                         12       1    1fxyz             2.666000      51.782785
                         12       1    1fxz2             2.666000      29.896805
                         12       1    1fy3              2.666000      13.370258
                         12       1    1fy2z             2.666000      29.896805
                         12       1    1fyz2             2.666000      29.896805
                         12       1    1fz3              2.666000      13.370258

                         13       1    1dx2              3.775000      16.827288
                         13       1    1dxy              3.775000      29.145718
                         13       1    1dxz              3.775000      29.145718
                         13       1    1dy2              3.775000      16.827288
                         13       1    1dyz              3.775000      29.145718
                         13       1    1dz2              3.775000      16.827288

                         14       1    1s         

                         15       1    1s         

                         16       1    1s         

                         17       1    1s         

     AE Potential information for                                            ALL

       Description:                                       All-electron potential
                                          Krack, Parrinello, PCCP 2, 2105 (2000)

       Gaussian exponent of the core charge distribution:               8.154466
       Electronic configuration (s p d ...):                           4   4   0


 MOLECULE KIND INFORMATION


 All atoms are their own molecule, skipping detailed information


 TOTAL NUMBERS AND MAXIMUM NUMBERS

  Total number of            - Atomic kinds:                                   1
                             - Atoms:                                          3
                             - Shell sets:                                    51
                             - Shells:                                        51
                             - Primitive Cartesian functions:                 87
                             - Cartesian basis functions:                    216
                             - Spherical basis functions:                    171

  Maximum angular momentum of the orbital basis functions:                     4


 MODULE QUICKSTEP: ATOMIC COORDINATES IN ANGSTROM

   Atom Kind Element         X             Y             Z       Z(eff)     Mass
      1    1 O     8      5.000000      5.000000      4.670000   8.0000  15.9994
      2    1 O     8      6.086900      5.000000      5.330000   8.0000  15.9994
      3    1 O     8      3.913100      5.000000      5.330000   8.0000  15.9994



 SCF PARAMETERS         Density guess:                                   RESTART
                        --------------------------------------------------------
                        max_scf:                                              50
                        max_scf_history:                                       0
                        max_diis:                                              4
                        --------------------------------------------------------
                        eps_scf:                                        1.00E-09
                        eps_scf_history:                                0.00E+00
                        eps_diis:                                       1.00E-01
                        eps_eigval:                                     1.00E-05
                        --------------------------------------------------------
                        level_shift [a.u.]:                             0.000000
                        --------------------------------------------------------
                        Mixing method:                           DIRECT_P_MIXING
                        --------------------------------------------------------
                        No outer SCF

 PW_GRID| Information for grid number                                          1
 PW_GRID| Cutoff [a.u.]                                                    400.0
 PW_GRID| spherical cutoff:                                                   NO
 PW_GRID|   Bounds   1            -90      89                Points:         180
 PW_GRID|   Bounds   2            -90      89                Points:         180
 PW_GRID|   Bounds   3            -90      89                Points:         180
 PW_GRID| Volume element (a.u.^3)  0.1157E-02     Volume (a.u.^3)      6748.3346
 PW_GRID| Grid span                                                    FULLSPACE

 PW_GRID| Information for grid number                                          2
 PW_GRID| Number of the reference grid                                         1
 PW_GRID| Cutoff [a.u.]                                                    200.0
 PW_GRID| spherical cutoff:                                                   NO
 PW_GRID|   Bounds   1            -62      62                Points:         125
 PW_GRID|   Bounds   2            -62      62                Points:         125
 PW_GRID|   Bounds   3            -62      62                Points:         125
 PW_GRID| Volume element (a.u.^3)  0.3455E-02     Volume (a.u.^3)      6748.3346
 PW_GRID| Grid span                                                    FULLSPACE

 PW_GRID| Information for grid number                                          3
 PW_GRID| Number of the reference grid                                         2
 PW_GRID| Cutoff [a.u.]                                                     66.7
 PW_GRID| spherical cutoff:                                                   NO
 PW_GRID|   Bounds   1            -36      35                Points:          72
 PW_GRID|   Bounds   2            -36      35                Points:          72
 PW_GRID|   Bounds   3            -36      35                Points:          72
 PW_GRID| Volume element (a.u.^3)  0.1808E-01     Volume (a.u.^3)      6748.3346
 PW_GRID| Grid span                                                    FULLSPACE

 PW_GRID| Information for grid number                                          4
 PW_GRID| Number of the reference grid                                         2
 PW_GRID| Cutoff [a.u.]                                                     22.2
 PW_GRID| spherical cutoff:                                                   NO
 PW_GRID|   Bounds   1            -22      22                Points:          45
 PW_GRID|   Bounds   2            -22      22                Points:          45
 PW_GRID|   Bounds   3            -22      22                Points:          45
 PW_GRID| Volume element (a.u.^3)  0.7406E-01     Volume (a.u.^3)      6748.3346
 PW_GRID| Grid span                                                    FULLSPACE

 PW_GRID| Information for grid number                                          5
 PW_GRID| Number of the reference grid                                         2
 PW_GRID| Cutoff [a.u.]                                                      7.4
 PW_GRID| spherical cutoff:                                                   NO
 PW_GRID|   Bounds   1            -12      11                Points:          24
 PW_GRID|   Bounds   2            -12      11                Points:          24
 PW_GRID|   Bounds   3            -12      11                Points:          24
 PW_GRID| Volume element (a.u.^3)  0.4882         Volume (a.u.^3)      6748.3346
 PW_GRID| Grid span                                                    FULLSPACE

 POISSON| Solver                                          Martyna-Tuckerman (MT)
 POISSON| MT| Alpha                                                        7.000
 POISSON| MT| Relative cutoff                                                2.0
 POISSON| Periodicity                                                       NONE

 RS_GRID| Information for grid number                                          2
 RS_GRID|   Bounds   1            -62      62                Points:         125
 RS_GRID|   Bounds   2            -62      62                Points:         125
 RS_GRID|   Bounds   3            -62      62                Points:         125

 RS_GRID| Information for grid number                                          3
 RS_GRID|   Bounds   1            -36      35                Points:          72
 RS_GRID|   Bounds   2            -36      35                Points:          72
 RS_GRID|   Bounds   3            -36      35                Points:          72

 RS_GRID| Information for grid number                                          4
 RS_GRID|   Bounds   1            -22      22                Points:          45
 RS_GRID|   Bounds   2            -22      22                Points:          45
 RS_GRID|   Bounds   3            -22      22                Points:          45

 RS_GRID| Information for grid number                                          5
 RS_GRID|   Bounds   1            -12      11                Points:          24
 RS_GRID|   Bounds   2            -12      11                Points:          24
 RS_GRID|   Bounds   3            -12      11                Points:          24
 
 RI-RPA| using GPW style
 

  HFX_INFO| Replica ID:                                                        1
  HFX_INFO| FRACTION:                                               1.0000000000
  HFX_INFO| Interaction Potential:                                       COULOMB
  HFX_INFO| EPS_SCHWARZ:                                                 2.0E-17
  HFX_INFO| EPS_SCHWARZ_FORCES                                           2.0E-15
  HFX_INFO| EPS_STORAGE_SCALING:                                         1.0E+00
  HFX_INFO| NBINS:                                                            64
  HFX_INFO| BLOCK_SIZE:                                                        1
  HFX_INFO| Number of periodic shells considered:                           NONE
  HFX_INFO| Number of periodic cells considered:                            NONE


 Number of electrons:                                                         24
 Number of occupied orbitals:                                                 12
 Number of molecular orbitals:                                                12

 Number of orbital functions:                                                171
 Number of independent orbital functions:                                    171

 Extrapolation method: initial_guess


 SCF WAVEFUNCTION OPTIMIZATION

  Step     Update method      Time    Convergence         Total energy    Change
  ------------------------------------------------------------------------------
     1 P_Mix/Diag. 0.40E+00    1.5     3.8462E-09      -225.3365086986 -2.25E+02
     2 P_Mix/Diag. 0.40E+00    1.1     9.4642E-09      -225.3365086986  0.00E+00
     3 DIIS/Diag.  0.34E-07    1.1     9.2792E-09      -225.3365086986 -5.68E-14
     4 DIIS/Diag.  0.67E-07    1.1     0.00000002      -225.3365086986  5.68E-14
     5 DIIS/Diag.  0.13E-06    1.1     0.00000001      -225.3365086986  2.27E-13
     6 DIIS/Diag.  0.65E-08    1.1     5.9974E-10      -225.3365086986 -1.99E-13

  *** SCF run converged in     6 steps ***


  Electronic density on regular grids:        -17.2619958426        6.7380041574
  Core density on regular grids:               24.0000000000        0.0000000000
  Hard and soft densities (Lebedev):          -33.7533677105      -27.0153628640
  Total Rho_soft + Rho1_hard - Rho1_soft      -24.0000006891
  Total charge density (r-space):              -0.0000006891
  Total Rho_soft + Rho0_soft (g-space):        -0.0000008189

  Overlap energy of the core charge distribution:               0.00000000036193
  Self energy of the core charge distribution:               -218.73036068360560
  Core Hamiltonian energy:                                    -19.77098373221094
  Hartree energy:                                              37.28115794305052
  Exchange-correlation energy:                                 -9.48995001617382

  GAPW| Exc from hard and soft atomic rho1:                   -15.79898399267626
  GAPW| local Eh = 1 center integrals:                          1.17261178264014

  Total energy:                                              -225.33650869861404

 !-----------------------------------------------------------------------------!
                     Mulliken Population Analysis

 #  Atom  Element  Kind  Atomic population                           Net charge
       1     O        1          7.752710                              0.247290
       2     O        1          8.123645                             -0.123645
       3     O        1          8.123645                             -0.123645
 # Total charge                             24.000000                  0.000000

 !-----------------------------------------------------------------------------!

 !-----------------------------------------------------------------------------!
                           Hirshfeld Charges

  #Atom  Element  Kind  Ref Charge     Population                    Net charge
      1       O      1       8.000          7.759                         0.241
      2       O      1       8.000          8.118                        -0.118
      3       O      1       8.000          8.118                        -0.118

  Total Charge                                                            0.004
 !-----------------------------------------------------------------------------!


 RI-RPA section
 --------------


  HFX_MEM_INFO| Est. max. program size before HFX [MiB]:                    1089
  HFX_MEM_INFO| Number of cart. primitive ERI's calculated:           1408312548
  HFX_MEM_INFO| Number of sph. ERI's calculated:                       220558244
  HFX_MEM_INFO| Number of sph. ERI's stored in-core:                    94855570
  HFX_MEM_INFO| Number of sph. ERI's stored on disk:                           0
  HFX_MEM_INFO| Number of sph. ERI's calculated on the fly:            125702674
  HFX_MEM_INFO| Total memory consumption ERI's RAM [MiB]:                    550
  HFX_MEM_INFO| Whereof max-vals [MiB]:                                        1
  HFX_MEM_INFO| Total compression factor ERI's RAM:                         1.32
  HFX_MEM_INFO| Total memory consumption ERI's disk [MiB]:                     0
  HFX_MEM_INFO| Total compression factor ERI's disk:                        0.00
  HFX_MEM_INFO| Size of density/Fock matrix [MiB]:                             0
  HFX_MEM_INFO| Size of buffers [MiB]:                                         0
  HFX_MEM_INFO| Est. max. program size after HFX  [MiB]:                    1624

  RI_INFO| RI metric:                                          TRUNCATED COULOMB
  RI_INFO| Cutoff Radius [angstrom]:                                        3.00
  RI_INFO| Number of auxiliary basis functions:                              540
  GENERAL_INFO| Number of basis functions:                                   171
  GENERAL_INFO| Number of occupied orbitals:                                  12
  GENERAL_INFO| Number of virtual orbitals:                                  159
  MEMORY_INFO| Memory for 3-center integrals (compressed):             64.94 MiB
  MEMORY_INFO| Compression factor:                                          1.88

 *** WARNING in rpa_main.F:323 :: The required number of quadrature point ***
 *** exceeds the maximum possible in the Minimax quadrature scheme. The   ***
 *** number of quadrature point has been reset to 30.                     ***

  MEMORY_INFO| Memory of MO-contracted tensor (compressed):             7.88 MiB
  MEMORY_INFO| Compression factor:                                          1.88
  MINIMAX_INFO| Number of integration points:                                 30
  MINIMAX_INFO| Gap for the minimax approximation:                        0.0657
  MINIMAX_INFO| Range for the minimax approximation:                   4124.8947
  MINIMAX_INFO| Minimax parameters:                  Weights           Abscissas
                                                0.2799747757        0.1390440691
                                                0.3030322366        0.4285658262
                                                0.3514607987        0.7535381269
                                                0.4300750515        1.1415170468
                                                0.5466362706        1.6262961988
                                                0.7126509029        2.2512192958
                                                0.9446233777        3.0735089473
                                                1.2659032640        4.1701310593
                                                1.7093454326        5.6458904465
                                                2.3211172345        7.6447264016
                                                3.1661481858       10.3655870594
                                                4.3359496851       14.0848656601
                                                5.9598731479       19.1882686704
                                                8.2213817780       26.2162906356
                                               11.3816715889       35.9294001371
                                               15.8141294962       49.4019126301
                                               22.0548861955       68.1578343697
                                               30.8774986912       94.3685009115
                                               43.4043105095      131.1419349460
                                               61.2748011285      182.9499065570
                                               86.9057979227      256.2654542343
                                              123.9091095171      360.5318037842
                                              177.8059069208      509.6803886172
                                              257.3781704871      724.6381601759
                                              377.6084511568     1037.8525105472
                                              567.2233674632     1502.6329781049
                                              891.8325474154     2216.1957399485
                                             1541.8004917178     3390.2397079407
                                             3298.2637895130     5640.1845677312
                                            12556.7263783485    12031.9143576312
  MINIMAX_INFO| Range for the minimax approximation:                   4124.8947
  MINIMAX_INFO| Gap:                                                      0.0657
  MINIMAX_INFO| Minimax parameters of the time grid: Weights           Abscissas
                                                0.0000962411        0.0000373771
                                                0.0002305836        0.0001997891
                                                0.0003822735        0.0005042701
                                                0.0005653532        0.0009747265
                                                0.0008005490        0.0016522437
                                                0.0011179426        0.0026030942
                                                0.0015592200        0.0039292735
                                                0.0021797549        0.0057810982
                                                0.0030522555        0.0083725107
                                                0.0042732915        0.0120014208
                                                0.0059727905        0.0170780770
                                                0.0083264922        0.0241643879
                                                0.0115720429        0.0340274317
                                                0.0160300143        0.0477113968
                                                0.0221315602        0.0666336997
                                                0.0304548872        0.0927129624
                                                0.0417733670        0.1285390107
                                                0.0571190719        0.1775983314
                                                0.0778669730        0.2445728781
                                                0.1058474710        0.3357364609
                                                0.1434993689        0.4594826041
                                                0.1940843347        0.6270337911
                                                0.2620033605        0.8534114918
                                                0.3533009504        1.1588062453
                                                0.4765548689        1.5706201966
                                                0.6446507781        2.1267775244
                                                0.8788560930        2.8817671578
                                                1.2199572093        3.9195920390
                                                1.7678240695        5.3885316301
                                                2.9164581221        7.6389808407
  MINIMAX_INFO| Maximum deviation of the imag. time fit:                4.46E-06
  MINIMAX_INFO| Number of integration points:                                 30
  MINIMAX_INFO| Minimax params (freq grid, scaled):  Weights           Abscissas
                                                0.0184052405        0.0091406075
                                                0.0199210132        0.0281734563
                                                0.0231046548        0.0495367857
                                                0.0282726712        0.0750421025
                                                0.0359352803        0.1069109624
                                                0.0468489036        0.1479927344
                                                0.0620985245        0.2020491714
                                                0.0832191186        0.2741399291
                                                0.1123705296        0.3711547635
                                                0.1525877497        0.5025560886
                                                0.2081391752        0.6814225408
                                                0.2850406672        0.9259239144
                                                0.3917956484        1.2614161374
                                                0.5404647926        1.7234307399
                                                0.7482188445        2.3619601080
                                                1.0396038584        3.2476285840
                                                1.4498644893        4.4806226994
                                                2.0298535424        6.2036837174
                                                2.8533526735        8.6211297058
                                                4.0281394997       12.0269300185
                                                5.7130936522       16.8466152415
                                                8.1456515440       23.7009728792
                                               11.6887690169       33.5058403749
                                               16.9197640108       47.6369330009
                                               24.8235733044       68.2273074023
                                               37.2886538929       98.7814752752
                                               58.6281121310      145.6903235059
                                              101.3563054792      222.8707107902
                                              216.8243128710      370.7796651233
                                              825.4656821420      790.9651045531
  MINIMAX_INFO| Number of integration points:                                 30
  MINIMAX_INFO| Minimax params (time grid, scaled):  Weights           Abscissas
                                                0.0014639901        0.0005685684
                                                0.0035075653        0.0030391302
                                                0.0058150258        0.0076707990
                                                0.0085999770        0.0148272361
                                                0.0121777009        0.0251334151
                                                0.0170057936        0.0395974566
                                                0.0237183678        0.0597708829
                                                0.0331577512        0.0879402620
                                                0.0464299581        0.1273600195
                                                0.0650039770        0.1825618676
                                                0.0908562256        0.2597863784
                                                0.1266600016        0.3675811291
                                                0.1760303049        0.5176146736
                                                0.2438435748        0.7257708795
                                                0.3366583878        1.0136110477
                                                0.4632702402        1.4103206543
                                                0.6354434237        1.9552953220
                                                0.8688774984        2.7015704000
                                                1.1844880959        3.7203663059
                                                1.6101187000        5.1071182800
                                                2.1828676219        6.9895059963
                                                2.9523503375        9.5382423703
                                                3.9855133645       12.9818293151
                                                5.3743038128       17.6273990093
                                                7.2492039610       23.8917843342
                                                9.8062264791       32.3518760617
                                               13.3688846483       43.8365427783
                                               18.5576083930       59.6236110269
                                               26.8915881126       81.9686617188
                                               44.3642509016      116.2017928808
  Pade approximation: more parameters than data points. Reset # of parameters.
  Number of pade parameters:                                                  11

  MEMORY_INFO| Memory cut:                                                     1
  SPARSITY_INFO| Eps filter for M virt/occ tensors:                     1.00E-09
  SPARSITY_INFO| Eps filter for P matrix:                               1.00E-08
  SPARSITY_INFO| Minimum tensor block size:                                    5

  RPA_LOW_SCALING_INFO| Info for time point   1
     Execution time (s):                                                     3.1
     Occupancy of D occ:                                      2.9E+04 / 100.000%
     Occupancy of D virt:                                     2.9E+04 / 100.000%
     Occupancy of 3c ints:                                    1.5E+07 /  96.681%
     Occupancy of M occ:                                      1.6E+07 / 100.000%
     Occupancy of M virt:                                     1.6E+07 / 100.000%


  RPA_LOW_SCALING_INFO| Info for time point   2
     Execution time (s):                                                     2.6
     Occupancy of D occ:                                      2.9E+04 / 100.000%
     Occupancy of D virt:                                     2.9E+04 / 100.000%
     Occupancy of 3c ints:                                    1.5E+07 /  96.681%
     Occupancy of M occ:                                      1.6E+07 / 100.000%
     Occupancy of M virt:                                     1.6E+07 / 100.000%


  RPA_LOW_SCALING_INFO| Info for time point   3
     Execution time (s):                                                     2.6
     Occupancy of D occ:                                      2.9E+04 / 100.000%
     Occupancy of D virt:                                     2.9E+04 / 100.000%
     Occupancy of 3c ints:                                    1.5E+07 /  96.681%
     Occupancy of M occ:                                      1.6E+07 / 100.000%
     Occupancy of M virt:                                     1.6E+07 / 100.000%


  RPA_LOW_SCALING_INFO| Info for time point   4
     Execution time (s):                                                     2.9
[...]
    20 ( vir )            7.2130         -1.2619          3.9846          9.9358
    21 ( vir )            7.2308         -1.3936          4.3732         10.2105
    22 ( vir )            7.4454         -1.2561          3.8897         10.0790
   
  GW HOMO-LUMO gap (eV)                                                   9.3012
  
  ------------------------------------------------------------------------------

  Total RI-RPA Time=                                                   98.863120


 ENERGY| Total FORCE_EVAL ( QS ) energy [a.u.]:             -225.336508698614040

 -------------------------------------------------------------------------------
 -                                                                             -
 -                                DBCSR STATISTICS                             -
 -                                                                             -
 -------------------------------------------------------------------------------
 COUNTER                                    TOTAL       BLAS       SMM       ACC
 flops    57 x    12 x    57               701784       0.0%    100.0%      0.0%
 flops    57 x    57 x    12              3274992       0.0%    100.0%      0.0%
 flops    57 x    57 x    57              3333474       0.0%    100.0%      0.0%
 flops   171 x   171 x   171             10000422       0.0%    100.0%      0.0%
 flops   180 x   180 x   180           9447840000       0.0%    100.0%      0.0%
 flops inhomo. stacks                           0       0.0%      0.0%      0.0%
 flops total                         9.465151E+09       0.0%    100.0%      0.0%
 flops max/rank                      9.465151E+09       0.0%    100.0%      0.0%
 matmuls inhomo. stacks                         0       0.0%      0.0%      0.0%
 matmuls total                                871       0.0%    100.0%      0.0%
 number of processed stacks                    40       0.0%    100.0%      0.0%
 average stack size                                     0.0      21.8       0.0
 marketing flops                     9.455796E+09
 -------------------------------------------------------------------------------
 # multiplications                             40
 max memory usage/rank               2.612687E+09
 # max total images/rank                        1
 # max 3D layers                                1
 # MPI messages exchanged                       0
 -------------------------------------------------------------------------------
 -                                                                             -
 -                      DBCSR MESSAGE PASSING PERFORMANCE                      -
 -                                                                             -
 -------------------------------------------------------------------------------
 ROUTINE             CALLS      AVE VOLUME [Bytes]
 MP_Bcast                6                     12.
 MP_Allreduce          208                     11.
 MP_Alltoall          1769                 576780.
 MP_ISend              160                    158.
 MP_IRecv              160                    158.
 -------------------------------------------------------------------------------

 -------------------------------------------------------------------------------
 -                                                                             -
 -                                DBM STATISTICS                               -
 -                                                                             -
 -------------------------------------------------------------------------------
    M  x    N  x    K                                          COUNT     PERCENT
    ?  x    ?  x   ??                                       21465020      22.36%
   ??  x    ?  x   ??                                       15955851      16.62%
   ??  x    ?  x    ?                                        9703044      10.11%
   ??  x   ??  x   ??                                        8835251       9.21%
    ?  x   ??  x   ??                                        8623404       8.98%
   ??  x   ??  x    ?                                        7099374       7.40%
    ?  x    ?  x    ?                                        5942572       6.19%
    ?  x    ?  x  ???                                        4880787       5.09%
   ??  x    ?  x  ???                                        1955835       2.04%
    ?  x   ??  x  ???                                        1955632       2.04%
    ?  x  ???  x    ?                                        1820070       1.90%
  ???  x    ?  x    ?                                        1504604       1.57%
  ???  x    ?  x   ??                                        1155428       1.20%
  ???  x   ??  x    ?                                        1101866       1.15%
    ?  x  ???  x   ??                                         918540       0.96%
   ??  x  ???  x    ?                                         918540       0.96%
  ???  x   ??  x   ??                                         846534       0.88%
   ??  x   ??  x  ???                                         783534       0.82%
   ??  x  ???  x   ??                                         510300       0.53%
 -------------------------------------------------------------------------------

 -------------------------------------------------------------------------------
 -                                                                             -
 -                                GRID STATISTICS                              -
 -                                                                             -
 -------------------------------------------------------------------------------
 LP    KERNEL             BACKEND                              COUNT     PERCENT
 3     collocate ortho    CPU                                   1512      10.63%
 3     integrate ortho    CPU                                   1512      10.63%
 2     collocate ortho    CPU                                   1428      10.04%
 2     integrate ortho    CPU                                   1428      10.04%
 4     collocate ortho    CPU                                   1295       9.10%
 4     integrate ortho    CPU                                   1295       9.10%
 1     collocate ortho    CPU                                   1008       7.08%
 1     integrate ortho    CPU                                   1008       7.08%
 5     collocate ortho    CPU                                    840       5.90%
 5     integrate ortho    CPU                                    840       5.90%
 6     collocate ortho    CPU                                    420       2.95%
 6     integrate ortho    CPU                                    420       2.95%
 0     collocate ortho    CPU                                    378       2.66%
 0     integrate ortho    CPU                                    378       2.66%
 7     collocate ortho    CPU                                    168       1.18%
 7     integrate ortho    CPU                                    168       1.18%
 8     collocate ortho    CPU                                     42       0.30%
 8     integrate ortho    CPU                                     42       0.30%
 2     collocate general  CPU                                     21       0.15%
 2     integrate general  CPU                                     21       0.15%
 0     collocate general  CPU                                      3       0.02%
 0     integrate general  CPU                                      3       0.02%
 -------------------------------------------------------------------------------

 MEMORY| Estimated peak process memory [MiB]                                2966

 -------------------------------------------------------------------------------
 ----                             MULTIGRID INFO                            ----
 -------------------------------------------------------------------------------
 count for grid        1:           3527          cutoff [a.u.]          200.00
 count for grid        2:            846          cutoff [a.u.]           66.67
 count for grid        3:            254          cutoff [a.u.]           22.22
 count for grid        4:             22          cutoff [a.u.]            7.41
 total gridlevel count  :           4649

 -------------------------------------------------------------------------------
 -                                                                             -
 -                         MESSAGE PASSING PERFORMANCE                         -
 -                                                                             -
 -------------------------------------------------------------------------------

 ROUTINE             CALLS      AVE VOLUME [Bytes]
 MP_Group             2229
 MP_Bcast              880                   7295.
 MP_Allreduce         2668                   2605.
 MP_Sync              3540
 MP_Alltoall           618                     14.
 MP_Wait                10
 MP_comm_split         797
 MP_ISend               14                 333263.
 MP_IRecv               14                 333263.
 -------------------------------------------------------------------------------


 -------------------------------------------------------------------------------
 -                                                                             -
 -                           R E F E R E N C E S                               -
 -                                                                             -
 -------------------------------------------------------------------------------
 
 CP2K version 2024.1 (Development Version), the CP2K developers group (2024).
 CP2K is freely available from https://www.cp2k.org/ .

 Kuehne,Thomas D.; Iannuzzi,Marcella; Del Ben,Mauro;
 Rybkin,Vladimir V.; Seewald,Patrick; Stein,Frederick; Laino,Teodoro;
 Khaliullin,Rustam Z.; Schuett,Ole; Schiffmann,Florian; Golze,Dorothea;
 Wilhelm,Jan; Chulkov,Sergey; Bani-Hashemian,Mohammad Hossein;
 Weber,Valery; Borstnik,Urban; Taillefumier,Mathieu;
 Jakobovits,Alice Shoshana; Lazzaro,Alfio; Pabst,Hans; Mueller,Tiziano;
 Schade,Robert; Guidon,Manuel; Andermatt,Samuel; Holmberg,Nico;
 Schenter,Gregory K.; Hehn,Anna; Bussy,Augustin; Belleflamme,Fabian;
 Tabacchi,Gloria; Gloess,Andreas; Lass,Michael; Bethune,Iain;
 Mundy,Christopher J.; Plessl,Christian; Watkins,Matt;
 VandeVondele,Joost; Krack,Matthias; Hutter,Juerg. 
 The Journal of Chemical Physics, 152 (19), (2020). 
 CP2K: An electronic structure and molecular dynamics software package -
 Quickstep: Efficient and accurate electronic structure calculations.
 https://doi.org/10.1063/5.0007045

 Wilhelm, J; Golze, D; Talirz, L; Hutter, J; Pignedoli, CA. 
 JOURNAL OF PHYSICAL CHEMISTRY LETTERS, 9, 306-312 (2018). 
 Toward GW calculations on thousands of atoms.
 https://doi.org/10.1021/acs.jpclett.7b02740

 Wilhelm, J; Hutter, J. PHYSICAL REVIEW B, 95, 235123 (2017). 
 Periodic GW calculations in the Gaussian and plane-waves scheme.
 https://doi.org/10.1103/PhysRevB.95.235123

 Wilhelm, J; Del Ben, M; Hutter, J. 
 JOURNAL OF CHEMICAL THEORY AND COMPUTATION, 12, 3623-3635 (2016). 
 GW in the Gaussian and plane waves scheme with application to linear acenes.
 https://doi.org/10.1021/acs.jctc.6b00380

 Wilhelm, J; Seewald, P; Del Ben, M; Hutter, J. 
 JOURNAL OF CHEMICAL THEORY AND COMPUTATION, 12, 5851-5859 (2016). 
 Large-Scale Cubic-Scaling Random Phase Approximation Correlation.
 https://doi.org/10.1021/acs.jctc.6b00840

 Schuett, Ole; Messmer, Peter; Hutter, Juerg; VandeVondele, Joost. 
 Electronic Structure Calculations on Graphics Processing Units, John
 Wiley & Sons, Ltd, 173-190 (2016). 
 GPU-Accelerated Sparse Matrix-Matrix Multiplication for
 Linear Scaling Density Functional Theory.
 https://doi.org/10.1002/9781118670712.ch8

 Heinecke, A; Henry, G; Hutchinson, M; Pabst, H. 
 Proceedings of Intl. Supercomputing Conference, 981-991 (2016). 
 LIBXSMM: Accelerating Small Matrix Multiplications
 by Runtime Code Generation.
 https://doi.org/10.1109/SC.2016.83

 Del Ben, M; Schuett, O; Wentz, T; Messmer, P; Hutter, J;
 VandeVondele, J. 
 COMPUTER PHYSICS COMMUNICATIONS, 187, 120-129 (2015). 
 Enabling simulation at the fifth rung of DFT: Large scale RPA
 calculations with excellent time to solution.
 https://doi.org/10.1016/j.cpc.2014.10.021

 Borstnik, U; VandeVondele, J; Weber, V; Hutter, J. 
 PARALLEL COMPUTING, 40 (5-6), 47-58 (2014). 
 Sparse matrix multiplication: The distributed block-compressed sparse
 row library.
 https://doi.org/10.1016/j.parco.2014.03.012

 Hutter, J; Iannuzzi, M; Schiffmann, F; VandeVondele, J. 
 WIREs Comput Mol Sci., 4 (1), 15-25 (2014). 
 CP2K: atomistic simulations of condensed matter systems.
 https://doi.org/10.1002/wcms.1159

 Del Ben, M; Hutter, J; VandeVondele, J. 
 JOURNAL OF CHEMICAL THEORY AND COMPUTATION, 9 (6), 2654-2671 (2013). 
 Electron Correlation in the Condensed Phase from a Resolution of
 Identity Approach Based on the Gaussian and Plane Waves Scheme.
 https://doi.org/10.1021/ct4002202

 Del Ben, M; Hutter, J; VandeVondele, J. 
 JOURNAL OF CHEMICAL THEORY AND COMPUTATION, 8 (11), 4177-4188 (2012). 
 Second-Order Moller-Plesset Perturbation Theory in the Condensed Phase:
 An Efficient and Massively Parallel Gaussian and Plane Waves Approach.
 https://doi.org/10.1021/ct300531w

 Guidon, M; Hutter, J; VandeVondele, J. 
 JOURNAL OF CHEMICAL THEORY AND COMPUTATION, 5 (11), 3010-3021 (2009). 
 Robust Periodic Hartree-Fock Exchange for Large-Scale Simulations Using
 Gaussian Basis Sets.
 https://doi.org/10.1021/ct900494g

 Guidon, M; Schiffmann, F; Hutter, J; VandeVondele, J. 
 JOURNAL OF CHEMICAL PHYSICS, 128 (21), 214104 (2008). 
 Ab initio molecular dynamics using hybrid density functionals.
 https://doi.org/10.1063/1.2931945

 Frigo, M; Johnson, SG. 
 PROCEEDINGS OF THE IEEE, 93 (2), 216-231 (2005). 
 The design and implementation of FFTW3.
 https://doi.org/10.1109/JPROC.2004.840301

 Lippert, G; Hutter, J; Parrinello, M. 
 THEORETICAL CHEMISTRY ACCOUNTS, 103 (2), 124-140 (1999). 
 The Gaussian and augmented-plane-wave density functional method for ab
 initio molecular dynamics simulations.
 https://doi.org/10.1007/s002140050523

 Krack, M; Parrinello, M. 
 PHYSICAL CHEMISTRY CHEMICAL PHYSICS, 2 (10), 2105-2112 (2000). 
 All-electron ab-initio molecular dynamics.
 https://doi.org/10.1039/b001167n

 Martyna, GJ; Tuckerman, ME. 
 JOURNAL OF CHEMICAL PHYSICS, 110 (6), 2810-2821 (1999). 
 A reciprocal space based method for treating long range interactions in
 ab initio and force-field-based calculations in clusters.
 https://doi.org/10.1063/1.477923

 Perdew, JP; Burke, K; Ernzerhof, M. 
 PHYSICAL REVIEW LETTERS, 77 (18), 3865-3868 (1996). 
 Generalized gradient approximation made simple.
 https://doi.org/10.1103/PhysRevLett.77.3865


 -------------------------------------------------------------------------------
 -                                                                             -
 -                                T I M I N G                                  -
 -                                                                             -
 -------------------------------------------------------------------------------
 SUBROUTINE                       CALLS  ASD         SELF TIME        TOTAL TIME
                                MAXIMUM       AVERAGE  MAXIMUM  AVERAGE  MAXIMUM
 CP2K                                 1  1.0    0.022    0.022  127.204  127.204
 qs_energies                          1  2.0    0.000    0.000  125.621  125.621
 mp2_main                             1  3.0    0.000    0.000  118.107  118.107
 mp2_gpw_main                         1  4.0    0.000    0.000   98.863   98.863
 rpa_ri_compute_en                    1  5.0    0.000    0.000   96.890   96.890
 rpa_num_int                          1  6.0    0.007    0.007   96.890   96.890
 dbt_total                         1029  9.1    0.004    0.004   89.169   89.169
 compute_mat_P_omega                  1  7.0    0.005    0.005   84.805   84.805
 compute_mat_P_omega_contract        30  8.0    1.256    1.256   84.275   84.275
 dbt_contract                       181 11.0    0.008    0.008   77.057   77.057
 dbt_tas_total                      396 11.9    1.007    1.007   69.950   69.950
 dbt_tas_multiply                   216 12.5    0.000    0.000   69.728   69.728
 dbt_tas_dbm                        216 14.5    0.001    0.001   56.396   56.396
 dbm_multiply                       216 16.5   56.393   56.393   56.393   56.393
 dbt_tas_mm_1N                      122 15.8    0.000    0.000   32.888   32.888
 compute_mat_P_omega_calc_M_occ      30  9.0    1.233    1.233   24.876   24.876
 compute_mat_P_omega_calc_P_t        30  9.0    0.000    0.000   23.977   23.977
 compute_mat_P_omega_calc_M_vir      30  9.0    0.000    0.000   22.813   22.813
 dbt_tas_mm_2                        31 15.1    0.000    0.000   20.719   20.719
 compute_vec_Sigma_x_minus_vxc_       1  4.0    0.000    0.000   19.240   19.240
 integrate_four_center                1  5.0    0.001    0.001   18.892   18.892
 integrate_four_center_main           1  6.0    0.000    0.000   17.341   17.341
 integrate_four_center_bin            1  7.0   17.341   17.341   17.341   17.341
 dbt_copy                           368 10.2    0.008    0.008   11.885   11.885
 compute_QP_energies                  1  7.0    0.007    0.007    9.345    9.345
 compute_self_energy_cubic_gw         1  8.0    0.010    0.010    9.337    9.337
 contract_cubic_gw                   60  9.0    0.000    0.000    7.565    7.565
 dbt_reshape                         93 11.9    5.631    5.631    7.383    7.383
 scf_env_do_scf                       1  3.0    0.000    0.000    7.264    7.264
 scf_env_do_scf_inner_loop            6  4.0    0.000    0.000    7.263    7.263
 dbt_crop                           212 12.0    4.109    4.109    7.050    7.050
 compute_mat_P_omega_copy_M_occ      30  9.0    0.000    0.000    7.018    7.018
 qs_ks_build_kohn_sham_matrix         7  6.7    0.008    0.008    6.736    6.736
 qs_ks_update_qs_env                  6  5.0    0.000    0.000    6.390    6.390
 rebuild_ks_matrix                    6  6.0    0.000    0.000    6.390    6.390
 convert_to_new_pgrid               648 14.5    0.004    0.004    5.881    5.881
 dbm_copy                           432 15.5    5.877    5.877    5.877    5.877
 dbt_tas_reserve_blocks_index      1449 14.1    1.156    1.156    5.197    5.197
 dbt_reserve_blocks_index           919 12.7    0.090    0.090    4.374    4.374
 dbt_reserve_blocks_index_array     767 12.1    0.002    0.002    4.349    4.349
 dbm_reserve_blocks                1665 15.1    4.205    4.205    4.205    4.205
 fft_wrap_pw1pw2                    120 10.1    0.001    0.001    3.720    3.720
 dbm_add                            216 14.5    3.678    3.678    3.678    3.678
 qs_vxc_create                        7  7.7    0.000    0.000    3.496    3.496
 xc_vxc_pw_create                     6  9.0    0.080    0.080    3.495    3.495
 fft_wrap_pw1pw2_200                 77 11.5    0.099    0.099    3.356    3.356
 dbt_tas_mm_3N                       61 15.0    0.000    0.000    2.600    2.600
 -------------------------------------------------------------------------------

 The number of warnings for this run is : 1
 
 -------------------------------------------------------------------------------
  **** **** ******  **  PROGRAM ENDED AT                 2024-05-14 10:41:18.286
 ***** ** ***  *** **   PROGRAM RAN ON                               surface-mia
 **    ****   ******    PROGRAM RAN BY                                       mia
 ***** **    ** ** **   PROGRAM PROCESS ID                                 16775
  **** **  *******  **  PROGRAM STOPPED IN /home/mia/Dokumente/GW100/Paper/Low_S
                                           caling/0_O3_PBE
